    1C
    1UUSER                                                              
    1UDATE              02.january.2023                                 
    1UTIME              14:20:51                                        
    1UHOST                                                              
    1UPGM               CalculiX                                        
    1UVERSION           Version DEVELOPMENT                             
    1UCOMPILETIME       Mon Jan  2 13:44:36 CET 2023                    
    1UDIR                                                               
    1UDBN                                                               
    1UMAT    1SOLID                                                     
    1UMAT    2IDEAL_GAS                                                 
    2C                           425                                     1
 -1         1 1.00000E+00 0.00000E+00 0.00000E+00
 -1         2 7.50000E-01 0.00000E+00 0.00000E+00
 -1         3 7.50000E-01-1.11022E-16 2.00000E+00
 -1         4 1.00000E+00 0.00000E+00 2.00000E+00
 -1         5 1.00000E+00 2.50000E-01 0.00000E+00
 -1         6 7.50000E-01 2.50000E-01 0.00000E+00
 -1         7 7.50000E-01 2.50000E-01 2.00000E+00
 -1         8 1.00000E+00 2.50000E-01 2.00000E+00
 -1         9 8.75000E-01 0.00000E+00 0.00000E+00
 -1        10 7.50000E-01 0.00000E+00 1.00000E+00
 -1        11 8.75000E-01 1.66533E-16 2.00000E+00
 -1        12 1.00000E+00 0.00000E+00 1.00000E+00
 -1        13 1.00000E+00 1.25000E-01 0.00000E+00
 -1        14 7.50000E-01 1.25000E-01-1.77636E-15
 -1        15 7.50000E-01 1.25000E-01 2.00000E+00
 -1        16 1.00000E+00 1.25000E-01 2.00000E+00
 -1        17 8.75000E-01 2.50000E-01-8.88178E-16
 -1        18 7.50000E-01 2.50000E-01 1.00000E+00
 -1        19 8.75000E-01 2.50000E-01 2.00000E+00
 -1        20 1.00000E+00 2.50000E-01 1.00000E+00
 -1        21 7.50000E-01 0.00000E+00 4.00000E+00
 -1        22 1.00000E+00 0.00000E+00 4.00000E+00
 -1        23 7.50000E-01 2.50000E-01 4.00000E+00
 -1        24 1.00000E+00 2.50000E-01 4.00000E+00
 -1        25 7.50000E-01-1.11022E-16 3.00000E+00
 -1        26 8.75000E-01 5.55112E-17 4.00000E+00
 -1        27 1.00000E+00 0.00000E+00 3.00000E+00
 -1        28 7.50000E-01 1.25000E-01 4.00000E+00
 -1        29 1.00000E+00 1.25000E-01 4.00000E+00
 -1        30 7.50000E-01 2.50000E-01 3.00000E+00
 -1        31 8.75000E-01 2.50000E-01 4.00000E+00
 -1        32 1.00000E+00 2.50000E-01 3.00000E+00
 -1        33 7.50000E-01 5.55112E-17 6.00000E+00
 -1        34 1.00000E+00 0.00000E+00 6.00000E+00
 -1        35 7.50000E-01 2.50000E-01 6.00000E+00
 -1        36 1.00000E+00 2.50000E-01 6.00000E+00
 -1        37 7.50000E-01 0.00000E+00 5.00000E+00
 -1        38 8.75000E-01 1.11022E-16 6.00000E+00
 -1        39 1.00000E+00 0.00000E+00 5.00000E+00
 -1        40 7.50000E-01 1.25000E-01 6.00000E+00
 -1        41 1.00000E+00 1.25000E-01 6.00000E+00
 -1        42 7.50000E-01 2.50000E-01 5.00000E+00
 -1        43 8.75000E-01 2.50000E-01 6.00000E+00
 -1        44 1.00000E+00 2.50000E-01 5.00000E+00
 -1        45 7.50000E-01 0.00000E+00 8.00000E+00
 -1        46 1.00000E+00 0.00000E+00 8.00000E+00
 -1        47 7.50000E-01 2.50000E-01 8.00000E+00
 -1        48 1.00000E+00 2.50000E-01 8.00000E+00
 -1        49 7.50000E-01 0.00000E+00 7.00000E+00
 -1        50 8.75000E-01 0.00000E+00 8.00000E+00
 -1        51 1.00000E+00 0.00000E+00 7.00000E+00
 -1        52 7.50000E-01 1.25000E-01 8.00000E+00
 -1        53 1.00000E+00 1.25000E-01 8.00000E+00
 -1        54 7.50000E-01 2.50000E-01 7.00000E+00
 -1        55 8.75000E-01 2.50000E-01 8.00000E+00
 -1        56 1.00000E+00 2.50000E-01 7.00000E+00
 -1        57 1.00000E+00 5.00000E-01 0.00000E+00
 -1        58 7.50000E-01 5.00000E-01-1.77636E-15
 -1        59 7.50000E-01 5.00000E-01 2.00000E+00
 -1        60 1.00000E+00 5.00000E-01 2.00000E+00
 -1        61 1.00000E+00 3.75000E-01 0.00000E+00
 -1        62 7.50000E-01 3.75000E-01 0.00000E+00
 -1        63 7.50000E-01 3.75000E-01 2.00000E+00
 -1        64 1.00000E+00 3.75000E-01 2.00000E+00
 -1        65 8.75000E-01 5.00000E-01 8.88178E-16
 -1        66 7.50000E-01 5.00000E-01 1.00000E+00
 -1        67 8.75000E-01 5.00000E-01 2.00000E+00
 -1        68 1.00000E+00 5.00000E-01 1.00000E+00
 -1        69 7.50000E-01 5.00000E-01 4.00000E+00
 -1        70 1.00000E+00 5.00000E-01 4.00000E+00
 -1        71 7.50000E-01 3.75000E-01 4.00000E+00
 -1        72 1.00000E+00 3.75000E-01 4.00000E+00
 -1        73 7.50000E-01 5.00000E-01 3.00000E+00
 -1        74 8.75000E-01 5.00000E-01 4.00000E+00
 -1        75 1.00000E+00 5.00000E-01 3.00000E+00
 -1        76 7.50000E-01 5.00000E-01 6.00000E+00
 -1        77 1.00000E+00 5.00000E-01 6.00000E+00
 -1        78 7.50000E-01 3.75000E-01 6.00000E+00
 -1        79 1.00000E+00 3.75000E-01 6.00000E+00
 -1        80 7.50000E-01 5.00000E-01 5.00000E+00
 -1        81 8.75000E-01 5.00000E-01 6.00000E+00
 -1        82 1.00000E+00 5.00000E-01 5.00000E+00
 -1        83 7.50000E-01 5.00000E-01 8.00000E+00
 -1        84 1.00000E+00 5.00000E-01 8.00000E+00
 -1        85 7.50000E-01 3.75000E-01 8.00000E+00
 -1        86 1.00000E+00 3.75000E-01 8.00000E+00
 -1        87 7.50000E-01 5.00000E-01 7.00000E+00
 -1        88 8.75000E-01 5.00000E-01 8.00000E+00
 -1        89 1.00000E+00 5.00000E-01 7.00000E+00
 -1        90 1.00000E+00 7.50000E-01 0.00000E+00
 -1        91 7.50000E-01 7.50000E-01 8.88178E-16
 -1        92 7.50000E-01 7.50000E-01 2.00000E+00
 -1        93 1.00000E+00 7.50000E-01 2.00000E+00
 -1        94 1.00000E+00 6.25000E-01 0.00000E+00
 -1        95 7.50000E-01 6.25000E-01 0.00000E+00
 -1        96 7.50000E-01 6.25000E-01 2.00000E+00
 -1        97 1.00000E+00 6.25000E-01 2.00000E+00
 -1        98 8.75000E-01 7.50000E-01 0.00000E+00
 -1        99 7.50000E-01 7.50000E-01 1.00000E+00
 -1       100 8.75000E-01 7.50000E-01 2.00000E+00
 -1       101 1.00000E+00 7.50000E-01 1.00000E+00
 -1       102 7.50000E-01 7.50000E-01 4.00000E+00
 -1       103 1.00000E+00 7.50000E-01 4.00000E+00
 -1       104 7.50000E-01 6.25000E-01 4.00000E+00
 -1       105 1.00000E+00 6.25000E-01 4.00000E+00
 -1       106 7.50000E-01 7.50000E-01 3.00000E+00
 -1       107 8.75000E-01 7.50000E-01 4.00000E+00
 -1       108 1.00000E+00 7.50000E-01 3.00000E+00
 -1       109 7.50000E-01 7.50000E-01 6.00000E+00
 -1       110 1.00000E+00 7.50000E-01 6.00000E+00
 -1       111 7.50000E-01 6.25000E-01 6.00000E+00
 -1       112 1.00000E+00 6.25000E-01 6.00000E+00
 -1       113 7.50000E-01 7.50000E-01 5.00000E+00
 -1       114 8.75000E-01 7.50000E-01 6.00000E+00
 -1       115 1.00000E+00 7.50000E-01 5.00000E+00
 -1       116 7.50000E-01 7.50000E-01 8.00000E+00
 -1       117 1.00000E+00 7.50000E-01 8.00000E+00
 -1       118 7.50000E-01 6.25000E-01 8.00000E+00
 -1       119 1.00000E+00 6.25000E-01 8.00000E+00
 -1       120 7.50000E-01 7.50000E-01 7.00000E+00
 -1       121 8.75000E-01 7.50000E-01 8.00000E+00
 -1       122 1.00000E+00 7.50000E-01 7.00000E+00
 -1       123 1.00000E+00 1.00000E+00 0.00000E+00
 -1       124 7.50000E-01 1.00000E+00 0.00000E+00
 -1       125 7.50000E-01 1.00000E+00 2.00000E+00
 -1       126 1.00000E+00 1.00000E+00 2.00000E+00
 -1       127 1.00000E+00 8.75000E-01 0.00000E+00
 -1       128 7.50000E-01 8.75000E-01 0.00000E+00
 -1       129 7.50000E-01 8.75000E-01 2.00000E+00
 -1       130 1.00000E+00 8.75000E-01 2.00000E+00
 -1       131 8.75000E-01 1.00000E+00 0.00000E+00
 -1       132 7.50000E-01 1.00000E+00 1.00000E+00
 -1       133 8.75000E-01 1.00000E+00 2.00000E+00
 -1       134 1.00000E+00 1.00000E+00 1.00000E+00
 -1       135 7.50000E-01 1.00000E+00 4.00000E+00
 -1       136 1.00000E+00 1.00000E+00 4.00000E+00
 -1       137 7.50000E-01 8.75000E-01 4.00000E+00
 -1       138 1.00000E+00 8.75000E-01 4.00000E+00
 -1       139 7.50000E-01 1.00000E+00 3.00000E+00
 -1       140 8.75000E-01 1.00000E+00 4.00000E+00
 -1       141 1.00000E+00 1.00000E+00 3.00000E+00
 -1       142 7.50000E-01 1.00000E+00 6.00000E+00
 -1       143 1.00000E+00 1.00000E+00 6.00000E+00
 -1       144 7.50000E-01 8.75000E-01 6.00000E+00
 -1       145 1.00000E+00 8.75000E-01 6.00000E+00
 -1       146 7.50000E-01 1.00000E+00 5.00000E+00
 -1       147 8.75000E-01 1.00000E+00 6.00000E+00
 -1       148 1.00000E+00 1.00000E+00 5.00000E+00
 -1       149 7.50000E-01 1.00000E+00 8.00000E+00
 -1       150 1.00000E+00 1.00000E+00 8.00000E+00
 -1       151 7.50000E-01 8.75000E-01 8.00000E+00
 -1       152 1.00000E+00 8.75000E-01 8.00000E+00
 -1       153 7.50000E-01 1.00000E+00 7.00000E+00
 -1       154 8.75000E-01 1.00000E+00 8.00000E+00
 -1       155 1.00000E+00 1.00000E+00 7.00000E+00
 -1       156 5.00000E-01 0.00000E+00 0.00000E+00
 -1       157 5.00000E-01 1.11022E-16 2.00000E+00
 -1       158 5.00000E-01 2.50000E-01-8.88178E-16
 -1       159 5.00000E-01 2.50000E-01 2.00000E+00
 -1       160 6.25000E-01 0.00000E+00 0.00000E+00
 -1       161 5.00000E-01 5.55112E-17 1.00000E+00
 -1       162 6.25000E-01 0.00000E+00 2.00000E+00
 -1       163 5.00000E-01 1.25000E-01 8.88178E-16
 -1       164 5.00000E-01 1.25000E-01 2.00000E+00
 -1       165 6.25000E-01 2.50000E-01 0.00000E+00
 -1       166 5.00000E-01 2.50000E-01 1.00000E+00
 -1       167 6.25000E-01 2.50000E-01 2.00000E+00
 -1       168 5.00000E-01-2.22045E-16 4.00000E+00
 -1       169 5.00000E-01 2.50000E-01 4.00000E+00
 -1       170 5.00000E-01 1.11022E-16 3.00000E+00
 -1       171 6.25000E-01 0.00000E+00 4.00000E+00
 -1       172 5.00000E-01 1.25000E-01 4.00000E+00
 -1       173 5.00000E-01 2.50000E-01 3.00000E+00
 -1       174 6.25000E-01 2.50000E-01 4.00000E+00
 -1       175 5.00000E-01-1.11022E-16 6.00000E+00
 -1       176 5.00000E-01 2.50000E-01 6.00000E+00
 -1       177 5.00000E-01-1.11022E-16 5.00000E+00
 -1       178 6.25000E-01 0.00000E+00 6.00000E+00
 -1       179 5.00000E-01 1.25000E-01 6.00000E+00
 -1       180 5.00000E-01 2.50000E-01 5.00000E+00
 -1       181 6.25000E-01 2.50000E-01 6.00000E+00
 -1       182 5.00000E-01 0.00000E+00 8.00000E+00
 -1       183 5.00000E-01 2.50000E-01 8.00000E+00
 -1       184 5.00000E-01 0.00000E+00 7.00000E+00
 -1       185 6.25000E-01 0.00000E+00 8.00000E+00
 -1       186 5.00000E-01 1.25000E-01 8.00000E+00
 -1       187 5.00000E-01 2.50000E-01 7.00000E+00
 -1       188 6.25000E-01 2.50000E-01 8.00000E+00
 -1       189 5.00000E-01 5.00000E-01-1.77636E-15
 -1       190 5.00000E-01 5.00000E-01 2.00000E+00
 -1       191 5.00000E-01 3.75000E-01-8.88178E-16
 -1       192 5.00000E-01 3.75000E-01 2.00000E+00
 -1       193 6.25000E-01 5.00000E-01-1.77636E-15
 -1       194 5.00000E-01 5.00000E-01 1.00000E+00
 -1       195 6.25000E-01 5.00000E-01 2.00000E+00
 -1       196 5.00000E-01 5.00000E-01 4.00000E+00
 -1       197 5.00000E-01 3.75000E-01 4.00000E+00
 -1       198 5.00000E-01 5.00000E-01 3.00000E+00
 -1       199 6.25000E-01 5.00000E-01 4.00000E+00
 -1       200 5.00000E-01 5.00000E-01 6.00000E+00
 -1       201 5.00000E-01 3.75000E-01 6.00000E+00
 -1       202 5.00000E-01 5.00000E-01 5.00000E+00
 -1       203 6.25000E-01 5.00000E-01 6.00000E+00
 -1       204 5.00000E-01 5.00000E-01 8.00000E+00
 -1       205 5.00000E-01 3.75000E-01 8.00000E+00
 -1       206 5.00000E-01 5.00000E-01 7.00000E+00
 -1       207 6.25000E-01 5.00000E-01 8.00000E+00
 -1       208 5.00000E-01 7.50000E-01 8.88178E-16
 -1       209 5.00000E-01 7.50000E-01 2.00000E+00
 -1       210 5.00000E-01 6.25000E-01-1.77636E-15
 -1       211 5.00000E-01 6.25000E-01 2.00000E+00
 -1       212 6.25000E-01 7.50000E-01 0.00000E+00
 -1       213 5.00000E-01 7.50000E-01 1.00000E+00
 -1       214 6.25000E-01 7.50000E-01 2.00000E+00
 -1       215 5.00000E-01 7.50000E-01 4.00000E+00
 -1       216 5.00000E-01 6.25000E-01 4.00000E+00
 -1       217 5.00000E-01 7.50000E-01 3.00000E+00
 -1       218 6.25000E-01 7.50000E-01 4.00000E+00
 -1       219 5.00000E-01 7.50000E-01 6.00000E+00
 -1       220 5.00000E-01 6.25000E-01 6.00000E+00
 -1       221 5.00000E-01 7.50000E-01 5.00000E+00
 -1       222 6.25000E-01 7.50000E-01 6.00000E+00
 -1       223 5.00000E-01 7.50000E-01 8.00000E+00
 -1       224 5.00000E-01 6.25000E-01 8.00000E+00
 -1       225 5.00000E-01 7.50000E-01 7.00000E+00
 -1       226 6.25000E-01 7.50000E-01 8.00000E+00
 -1       227 5.00000E-01 1.00000E+00 0.00000E+00
 -1       228 5.00000E-01 1.00000E+00 2.00000E+00
 -1       229 5.00000E-01 8.75000E-01 4.44089E-16
 -1       230 5.00000E-01 8.75000E-01 2.00000E+00
 -1       231 6.25000E-01 1.00000E+00 0.00000E+00
 -1       232 5.00000E-01 1.00000E+00 1.00000E+00
 -1       233 6.25000E-01 1.00000E+00 2.00000E+00
 -1       234 5.00000E-01 1.00000E+00 4.00000E+00
 -1       235 5.00000E-01 8.75000E-01 4.00000E+00
 -1       236 5.00000E-01 1.00000E+00 3.00000E+00
 -1       237 6.25000E-01 1.00000E+00 4.00000E+00
 -1       238 5.00000E-01 1.00000E+00 6.00000E+00
 -1       239 5.00000E-01 8.75000E-01 6.00000E+00
 -1       240 5.00000E-01 1.00000E+00 5.00000E+00
 -1       241 6.25000E-01 1.00000E+00 6.00000E+00
 -1       242 5.00000E-01 1.00000E+00 8.00000E+00
 -1       243 5.00000E-01 8.75000E-01 8.00000E+00
 -1       244 5.00000E-01 1.00000E+00 7.00000E+00
 -1       245 6.25000E-01 1.00000E+00 8.00000E+00
 -1       246 2.50000E-01 0.00000E+00 0.00000E+00
 -1       247 2.50000E-01 1.11022E-16 2.00000E+00
 -1       248 2.50000E-01 2.50000E-01 0.00000E+00
 -1       249 2.50000E-01 2.50000E-01 2.00000E+00
 -1       250 3.75000E-01 0.00000E+00 0.00000E+00
 -1       251 2.50000E-01 0.00000E+00 1.00000E+00
 -1       252 3.75000E-01 0.00000E+00 2.00000E+00
 -1       253 2.50000E-01 1.25000E-01-8.88178E-16
 -1       254 2.50000E-01 1.25000E-01 2.00000E+00
 -1       255 3.75000E-01 2.50000E-01 0.00000E+00
 -1       256 2.50000E-01 2.50000E-01 1.00000E+00
 -1       257 3.75000E-01 2.50000E-01 2.00000E+00
 -1       258 2.50000E-01 1.11022E-16 4.00000E+00
 -1       259 2.50000E-01 2.50000E-01 4.00000E+00
 -1       260 2.50000E-01 0.00000E+00 3.00000E+00
 -1       261 3.75000E-01 1.11022E-16 4.00000E+00
 -1       262 2.50000E-01 1.25000E-01 4.00000E+00
 -1       263 2.50000E-01 2.50000E-01 3.00000E+00
 -1       264 3.75000E-01 2.50000E-01 4.00000E+00
 -1       265 2.50000E-01 0.00000E+00 6.00000E+00
 -1       266 2.50000E-01 2.50000E-01 6.00000E+00
 -1       267 2.50000E-01 0.00000E+00 5.00000E+00
 -1       268 3.75000E-01 0.00000E+00 6.00000E+00
 -1       269 2.50000E-01 1.25000E-01 6.00000E+00
 -1       270 2.50000E-01 2.50000E-01 5.00000E+00
 -1       271 3.75000E-01 2.50000E-01 6.00000E+00
 -1       272 2.50000E-01 0.00000E+00 8.00000E+00
 -1       273 2.50000E-01 2.50000E-01 8.00000E+00
 -1       274 2.50000E-01 0.00000E+00 7.00000E+00
 -1       275 3.75000E-01 0.00000E+00 8.00000E+00
 -1       276 2.50000E-01 1.25000E-01 8.00000E+00
 -1       277 2.50000E-01 2.50000E-01 7.00000E+00
 -1       278 3.75000E-01 2.50000E-01 8.00000E+00
 -1       279 2.50000E-01 5.00000E-01 0.00000E+00
 -1       280 2.50000E-01 5.00000E-01 2.00000E+00
 -1       281 2.50000E-01 3.75000E-01 0.00000E+00
 -1       282 2.50000E-01 3.75000E-01 2.00000E+00
 -1       283 3.75000E-01 5.00000E-01 0.00000E+00
 -1       284 2.50000E-01 5.00000E-01 1.00000E+00
 -1       285 3.75000E-01 5.00000E-01 2.00000E+00
 -1       286 2.50000E-01 5.00000E-01 4.00000E+00
 -1       287 2.50000E-01 3.75000E-01 4.00000E+00
 -1       288 2.50000E-01 5.00000E-01 3.00000E+00
 -1       289 3.75000E-01 5.00000E-01 4.00000E+00
 -1       290 2.50000E-01 5.00000E-01 6.00000E+00
 -1       291 2.50000E-01 3.75000E-01 6.00000E+00
 -1       292 2.50000E-01 5.00000E-01 5.00000E+00
 -1       293 3.75000E-01 5.00000E-01 6.00000E+00
 -1       294 2.50000E-01 5.00000E-01 8.00000E+00
 -1       295 2.50000E-01 3.75000E-01 8.00000E+00
 -1       296 2.50000E-01 5.00000E-01 7.00000E+00
 -1       297 3.75000E-01 5.00000E-01 8.00000E+00
 -1       298 2.50000E-01 7.50000E-01 0.00000E+00
 -1       299 2.50000E-01 7.50000E-01 2.00000E+00
 -1       300 2.50000E-01 6.25000E-01 0.00000E+00
 -1       301 2.50000E-01 6.25000E-01 2.00000E+00
 -1       302 3.75000E-01 7.50000E-01 0.00000E+00
 -1       303 2.50000E-01 7.50000E-01 1.00000E+00
 -1       304 3.75000E-01 7.50000E-01 2.00000E+00
 -1       305 2.50000E-01 7.50000E-01 4.00000E+00
 -1       306 2.50000E-01 6.25000E-01 4.00000E+00
 -1       307 2.50000E-01 7.50000E-01 3.00000E+00
 -1       308 3.75000E-01 7.50000E-01 4.00000E+00
 -1       309 2.50000E-01 7.50000E-01 6.00000E+00
 -1       310 2.50000E-01 6.25000E-01 6.00000E+00
 -1       311 2.50000E-01 7.50000E-01 5.00000E+00
 -1       312 3.75000E-01 7.50000E-01 6.00000E+00
 -1       313 2.50000E-01 7.50000E-01 8.00000E+00
 -1       314 2.50000E-01 6.25000E-01 8.00000E+00
 -1       315 2.50000E-01 7.50000E-01 7.00000E+00
 -1       316 3.75000E-01 7.50000E-01 8.00000E+00
 -1       317 2.50000E-01 1.00000E+00 0.00000E+00
 -1       318 2.50000E-01 1.00000E+00 2.00000E+00
 -1       319 2.50000E-01 8.75000E-01 0.00000E+00
 -1       320 2.50000E-01 8.75000E-01 2.00000E+00
 -1       321 3.75000E-01 1.00000E+00 0.00000E+00
 -1       322 2.50000E-01 1.00000E+00 1.00000E+00
 -1       323 3.75000E-01 1.00000E+00 2.00000E+00
 -1       324 2.50000E-01 1.00000E+00 4.00000E+00
 -1       325 2.50000E-01 8.75000E-01 4.00000E+00
 -1       326 2.50000E-01 1.00000E+00 3.00000E+00
 -1       327 3.75000E-01 1.00000E+00 4.00000E+00
 -1       328 2.50000E-01 1.00000E+00 6.00000E+00
 -1       329 2.50000E-01 8.75000E-01 6.00000E+00
 -1       330 2.50000E-01 1.00000E+00 5.00000E+00
 -1       331 3.75000E-01 1.00000E+00 6.00000E+00
 -1       332 2.50000E-01 1.00000E+00 8.00000E+00
 -1       333 2.50000E-01 8.75000E-01 8.00000E+00
 -1       334 2.50000E-01 1.00000E+00 7.00000E+00
 -1       335 3.75000E-01 1.00000E+00 8.00000E+00
 -1       336 0.00000E+00 0.00000E+00 0.00000E+00
 -1       337 0.00000E+00 0.00000E+00 2.00000E+00
 -1       338 0.00000E+00 2.50000E-01 0.00000E+00
 -1       339 0.00000E+00 2.50000E-01 2.00000E+00
 -1       340 1.25000E-01 0.00000E+00 0.00000E+00
 -1       341 0.00000E+00 0.00000E+00 1.00000E+00
 -1       342 1.25000E-01 0.00000E+00 2.00000E+00
 -1       343 0.00000E+00 1.25000E-01 0.00000E+00
 -1       344 1.66533E-16 1.25000E-01 2.00000E+00
 -1       345 1.25000E-01 2.50000E-01 0.00000E+00
 -1       346 0.00000E+00 2.50000E-01 1.00000E+00
 -1       347 1.25000E-01 2.50000E-01 2.00000E+00
 -1       348 0.00000E+00 0.00000E+00 4.00000E+00
 -1       349 0.00000E+00 2.50000E-01 4.00000E+00
 -1       350 0.00000E+00 0.00000E+00 3.00000E+00
 -1       351 1.25000E-01 1.11022E-16 4.00000E+00
 -1       352 1.11022E-16 1.25000E-01 4.00000E+00
 -1       353 0.00000E+00 2.50000E-01 3.00000E+00
 -1       354 1.25000E-01 2.50000E-01 4.00000E+00
 -1       355 0.00000E+00 0.00000E+00 6.00000E+00
 -1       356 0.00000E+00 2.50000E-01 6.00000E+00
 -1       357 0.00000E+00 0.00000E+00 5.00000E+00
 -1       358 1.25000E-01-1.11022E-16 6.00000E+00
 -1       359 1.66533E-16 1.25000E-01 6.00000E+00
 -1       360 0.00000E+00 2.50000E-01 5.00000E+00
 -1       361 1.25000E-01 2.50000E-01 6.00000E+00
 -1       362 0.00000E+00 0.00000E+00 8.00000E+00
 -1       363 0.00000E+00 2.50000E-01 8.00000E+00
 -1       364 0.00000E+00 0.00000E+00 7.00000E+00
 -1       365 1.25000E-01 0.00000E+00 8.00000E+00
 -1       366 0.00000E+00 1.25000E-01 8.00000E+00
 -1       367 0.00000E+00 2.50000E-01 7.00000E+00
 -1       368 1.25000E-01 2.50000E-01 8.00000E+00
 -1       369 0.00000E+00 5.00000E-01 0.00000E+00
 -1       370-2.22045E-16 5.00000E-01 2.00000E+00
 -1       371 0.00000E+00 3.75000E-01 0.00000E+00
 -1       372 0.00000E+00 3.75000E-01 2.00000E+00
 -1       373 1.25000E-01 5.00000E-01-8.88178E-16
 -1       374 5.55112E-17 5.00000E-01 1.00000E+00
 -1       375 1.25000E-01 5.00000E-01 2.00000E+00
 -1       376-2.22045E-16 5.00000E-01 4.00000E+00
 -1       377 0.00000E+00 3.75000E-01 4.00000E+00
 -1       378-2.22045E-16 5.00000E-01 3.00000E+00
 -1       379 1.25000E-01 5.00000E-01 4.00000E+00
 -1       380-1.11022E-16 5.00000E-01 6.00000E+00
 -1       381 0.00000E+00 3.75000E-01 6.00000E+00
 -1       382-1.11022E-16 5.00000E-01 5.00000E+00
 -1       383 1.25000E-01 5.00000E-01 6.00000E+00
 -1       384 0.00000E+00 5.00000E-01 8.00000E+00
 -1       385 0.00000E+00 3.75000E-01 8.00000E+00
 -1       386 0.00000E+00 5.00000E-01 7.00000E+00
 -1       387 1.25000E-01 5.00000E-01 8.00000E+00
 -1       388 0.00000E+00 7.50000E-01 0.00000E+00
 -1       389 5.55112E-17 7.50000E-01 2.00000E+00
 -1       390 0.00000E+00 6.25000E-01 0.00000E+00
 -1       391 0.00000E+00 6.25000E-01 2.00000E+00
 -1       392 1.25000E-01 7.50000E-01 1.33227E-15
 -1       393 0.00000E+00 7.50000E-01 1.00000E+00
 -1       394 1.25000E-01 7.50000E-01 2.00000E+00
 -1       395 1.11022E-16 7.50000E-01 4.00000E+00
 -1       396 1.11022E-16 6.25000E-01 4.00000E+00
 -1       397 0.00000E+00 7.50000E-01 3.00000E+00
 -1       398 1.25000E-01 7.50000E-01 4.00000E+00
 -1       399 0.00000E+00 7.50000E-01 6.00000E+00
 -1       400 0.00000E+00 6.25000E-01 6.00000E+00
 -1       401 0.00000E+00 7.50000E-01 5.00000E+00
 -1       402 1.25000E-01 7.50000E-01 6.00000E+00
 -1       403 0.00000E+00 7.50000E-01 8.00000E+00
 -1       404 0.00000E+00 6.25000E-01 8.00000E+00
 -1       405 0.00000E+00 7.50000E-01 7.00000E+00
 -1       406 1.25000E-01 7.50000E-01 8.00000E+00
 -1       407 0.00000E+00 1.00000E+00 0.00000E+00
 -1       408 0.00000E+00 1.00000E+00 2.00000E+00
 -1       409 0.00000E+00 8.75000E-01 0.00000E+00
 -1       410-1.11022E-16 8.75000E-01 2.00000E+00
 -1       411 1.25000E-01 1.00000E+00 0.00000E+00
 -1       412 0.00000E+00 1.00000E+00 1.00000E+00
 -1       413 1.25000E-01 1.00000E+00 2.00000E+00
 -1       414 0.00000E+00 1.00000E+00 4.00000E+00
 -1       415 5.55112E-17 8.75000E-01 4.00000E+00
 -1       416 0.00000E+00 1.00000E+00 3.00000E+00
 -1       417 1.25000E-01 1.00000E+00 4.00000E+00
 -1       418 0.00000E+00 1.00000E+00 6.00000E+00
 -1       419-1.11022E-16 8.75000E-01 6.00000E+00
 -1       420 0.00000E+00 1.00000E+00 5.00000E+00
 -1       421 1.25000E-01 1.00000E+00 6.00000E+00
 -1       422 0.00000E+00 1.00000E+00 8.00000E+00
 -1       423 0.00000E+00 8.75000E-01 8.00000E+00
 -1       424 0.00000E+00 1.00000E+00 7.00000E+00
 -1       425 1.25000E-01 1.00000E+00 8.00000E+00
 -3
    3C                            64                                     1
 -1         1    4    0    1
 -2         1         2         3         4         5         6         7         8         9        10
 -2        11        12        13        14        15        16        17        18        19        20
 -1         2    4    0    1
 -2         4         3        21        22         8         7        23        24        11        25
 -2        26        27        16        15        28        29        19        30        31        32
 -1         3    4    0    1
 -2        22        21        33        34        24        23        35        36        26        37
 -2        38        39        29        28        40        41        31        42        43        44
 -1         4    4    0    1
 -2        34        33        45        46        36        35        47        48        38        49
 -2        50        51        41        40        52        53        43        54        55        56
 -1         5    4    0    1
 -2         5         6         7         8        57        58        59        60        17        18
 -2        19        20        61        62        63        64        65        66        67        68
 -1         6    4    0    1
 -2         8         7        23        24        60        59        69        70        19        30
 -2        31        32        64        63        71        72        67        73        74        75
 -1         7    4    0    1
 -2        24        23        35        36        70        69        76        77        31        42
 -2        43        44        72        71        78        79        74        80        81        82
 -1         8    4    0    1
 -2        36        35        47        48        77        76        83        84        43        54
 -2        55        56        79        78        85        86        81        87        88        89
 -1         9    4    0    1
 -2        57        58        59        60        90        91        92        93        65        66
 -2        67        68        94        95        96        97        98        99       100       101
 -1        10    4    0    1
 -2        60        59        69        70        93        92       102       103        67        73
 -2        74        75        97        96       104       105       100       106       107       108
 -1        11    4    0    1
 -2        70        69        76        77       103       102       109       110        74        80
 -2        81        82       105       104       111       112       107       113       114       115
 -1        12    4    0    1
 -2        77        76        83        84       110       109       116       117        81        87
 -2        88        89       112       111       118       119       114       120       121       122
 -1        13    4    0    1
 -2        90        91        92        93       123       124       125       126        98        99
 -2       100       101       127       128       129       130       131       132       133       134
 -1        14    4    0    1
 -2        93        92       102       103       126       125       135       136       100       106
 -2       107       108       130       129       137       138       133       139       140       141
 -1        15    4    0    1
 -2       103       102       109       110       136       135       142       143       107       113
 -2       114       115       138       137       144       145       140       146       147       148
 -1        16    4    0    1
 -2       110       109       116       117       143       142       149       150       114       120
 -2       121       122       145       144       151       152       147       153       154       155
 -1        17    4    0    1
 -2         2       156       157         3         6       158       159         7       160       161
 -2       162        10        14       163       164        15       165       166       167        18
 -1        18    4    0    1
 -2         3       157       168        21         7       159       169        23       162       170
 -2       171        25        15       164       172        28       167       173       174        30
 -1        19    4    0    1
 -2        21       168       175        33        23       169       176        35       171       177
 -2       178        37        28       172       179        40       174       180       181        42
 -1        20    4    0    1
 -2        33       175       182        45        35       176       183        47       178       184
 -2       185        49        40       179       186        52       181       187       188        54
 -1        21    4    0    1
 -2         6       158       159         7        58       189       190        59       165       166
 -2       167        18        62       191       192        63       193       194       195        66
 -1        22    4    0    2
 -2         7       159       169        23        59       190       196        69       167       173
 -2       174        30        63       192       197        71       195       198       199        73
 -1        23    4    0    2
 -2        23       169       176        35        69       196       200        76       174       180
 -2       181        42        71       197       201        78       199       202       203        80
 -1        24    4    0    1
 -2        35       176       183        47        76       200       204        83       181       187
 -2       188        54        78       201       205        85       203       206       207        87
 -1        25    4    0    1
 -2        58       189       190        59        91       208       209        92       193       194
 -2       195        66        95       210       211        96       212       213       214        99
 -1        26    4    0    2
 -2        59       190       196        69        92       209       215       102       195       198
 -2       199        73        96       211       216       104       214       217       218       106
 -1        27    4    0    2
 -2        69       196       200        76       102       215       219       109       199       202
 -2       203        80       104       216       220       111       218       221       222       113
 -1        28    4    0    1
 -2        76       200       204        83       109       219       223       116       203       206
 -2       207        87       111       220       224       118       222       225       226       120
 -1        29    4    0    1
 -2        91       208       209        92       124       227       228       125       212       213
 -2       214        99       128       229       230       129       231       232       233       132
 -1        30    4    0    1
 -2        92       209       215       102       125       228       234       135       214       217
 -2       218       106       129       230       235       137       233       236       237       139
 -1        31    4    0    1
 -2       102       215       219       109       135       234       238       142       218       221
 -2       222       113       137       235       239       144       237       240       241       146
 -1        32    4    0    1
 -2       109       219       223       116       142       238       242       149       222       225
 -2       226       120       144       239       243       151       241       244       245       153
 -1        33    4    0    1
 -2       156       246       247       157       158       248       249       159       250       251