    1C
    1UModel: beam     Date: 10-Mar-1998                                 
    1UUSER                                                              
    1UDATE              10.november.2023                                
    1UTIME              23:20:25                                        
    1UHOST                                                              
    1UPGM               CalculiX                                        
    1UVERSION           Version DEVELOPMENT                             
    1UCOMPILETIME       Fri Nov 10 23:19:28 CET 2023                    
    1UDIR                                                               
    1UDBN                                                               
    1UMAT    1EL                                                        
    2C                             8                                     1
 -1         2 1.00000E+00 0.00000E+00 0.00000E+00
 -1        10 5.00000E-01 0.00000E+00 0.00000E+00
 -1        13 1.00000E+00 5.00000E-01 0.00000E+00
 -1        34 1.00000E+00 0.00000E+00 1.00000E+00
 -1        95 5.00000E-01 5.00000E-01 0.00000E+00
 -1       105 5.00000E-01 0.00000E+00 1.00000E+00
 -1       134 1.00000E+00 5.00000E-01 1.00000E+00
 -1       222 5.00000E-01 5.00000E-01 1.00000E+00
 -3
    3C                             1                                     1
 -1         1    1    0    1
 -2        10         2        13        95       105        34       134       222
 -3
    1PSTEP                         1           1           1          
  100CL  101 1.00000E-05           8                     1    1           1
 -4  DISP        4    1
 -5  D1          1    2    1    0
 -5  D2          1    2    2    0
 -5  D3          1    2    3    0
 -5  ALL         1    2    0    0    1ALL
 -1         2 0.00000E+00 0.00000E+00 0.00000E+00
 -1        10 9.44754E-03 0.00000E+00 0.00000E+00
 -1        13-1.28008E-03-9.36523E-03 0.00000E+00
 -1        34-3.86341E-03 4.40711E-03 3.92127E-02
 -1        95 8.29364E-03-9.47888E-03 0.00000E+00
 -1       105 5.71032E-03 4.29345E-03 3.91278E-02
 -1       134-5.01731E-03-5.08717E-03 3.91152E-02
 -1       222 4.55639E-03-5.20080E-03 3.90303E-02
 -3
    1PSTEP                         2           1           1          
  100CL  101 1.00000E-05           8                     1    1           1
 -4  STRESS      6    1
 -5  SXX         1    4    1    1
 -5  SYY         1    4    2    2
 -5  SZZ         1    4    3    3
 -5  SXY         1    4    1    2
 -5  SYZ         1    4    2    3
 -5  SZX         1    4    3    1
 -1         2 2.80645E-01 3.03240E-01 7.96183E+00-1.50038E-01 2.86319E-01-2.50090E-01
 -1        10 2.80645E-01 3.03240E-01 7.96183E+00-1.50038E-01 2.86319E-01-2.50090E-01
 -1        13 2.80645E-01 3.03240E-01 7.96183E+00-1.50038E-01 2.86319E-01-2.50090E-01
 -1        34 2.80645E-01 3.03240E-01 7.96183E+00-1.50038E-01 2.86319E-01-2.50090E-01
 -1        95 2.80645E-01 3.03240E-01 7.96183E+00-1.50038E-01 2.86319E-01-2.50090E-01
 -1       105 2.80645E-01 3.03240E-01 7.96183E+00-1.50038E-01 2.86319E-01-2.50090E-01
 -1       134 2.80645E-01 3.03240E-01 7.96183E+00-1.50038E-01 2.86319E-01-2.50090E-01
 -1       222 2.80645E-01 3.03240E-01 7.96183E+00-1.50038E-01 2.86319E-01-2.50090E-01
 -3
    1PSTEP                         3           1           1          
  100CL  101 1.00000E-05           8                     1    1           1
 -4  PE          1    1
 -5  PE          1    1    0    0
 -1         2 3.85125E-02
 -1        10 3.85125E-02
 -1        13 3.85125E-02
 -1        34 3.85125E-02
 -1        95 3.85125E-02
 -1       105 3.85125E-02
 -1       134 3.85125E-02
 -1       222 3.85125E-02
 -3
    1PSTEP                         4           2           1          
  100CL  102 2.00000E-05           8                     1    2           1
 -4  DISP        4    1
 -5  D1          1    2    1    0
 -5  D2          1    2    2    0
 -5  D3          1    2    3    0
 -5  ALL         1    2    0    0    1ALL
 -1         2 0.00000E+00 0.00000E+00 0.00000E+00
 -1        10 3.09300E-02 0.00000E+00 0.00000E+00
 -1        13-1.93851E-03-3.09079E-02 0.00000E+00
 -1        34-8.50183E-03 8.78761E-03 1.36600E-01
 -1        95 2.90715E-02-3.10112E-02 0.00000E+00
 -1       105 2.25082E-02 8.68431E-03 1.36508E-01
 -1       134-1.03603E-02-2.22019E-02 1.36517E-01
 -1       222 2.06498E-02-2.23053E-02 1.36425E-01
 -3
    1PSTEP                         5           2           1          
  100CL  102 2.00000E-05           8                     1    2           1
 -4  STRESS      6    1
 -5  SXX         1    4    1    1
 -5  SYY         1    4    2    2
 -5  SZZ         1    4    3    3
 -5  SXY         1    4    1    2
 -5  SYZ         1    4    2    3
 -5  SZX         1    4    3    1
 -1         2 5.42140E-02 2.74841E-02 2.56431E+01-1.53212E-01 4.40790E-01-4.61340E-01
 -1        10 5.42140E-02 2.74841E-02 2.56431E+01-1.53212E-01 4.40790E-01-4.61340E-01
 -1        13 5.42140E-02 2.74841E-02 2.56431E+01-1.53212E-01 4.40790E-01-4.61340E-01
 -1        34 5.42140E-02 2.74841E-02 2.56431E+01-1.53212E-01 4.40790E-01-4.61340E-01
 -1        95 5.42140E-02 2.74841E-02 2.56431E+01-1.53212E-01 4.40790E-01-4.61340E-01
 -1       105 5.42140E-02 2.74841E-02 2.56431E+01-1.53212E-01 4.40790E-01-4.61340E-01
 -1       134 5.42140E-02 2.74841E-02 2.56431E+01-1.53212E-01 4.40790E-01-4.61340E-01
 -1       222 5.42140E-02 2.74841E-02 2.56431E+01-1.53212E-01 4.40790E-01-4.61340E-01
 -3
    1PSTEP                         6           2           1          
  100CL  102 2.00000E-05           8                     1    2           1
 -4  PE          1    1
 -5  PE          1    1    0    0
 -1         2 1.28137E-01
 -1        10 1.28137E-01
 -1        13 1.28137E-01
 -1        34 1.28137E-01
 -1        95 1.28137E-01
 -1       105 1.28137E-01
 -1       134 1.28137E-01
 -1       222 1.28137E-01
 -3
    1PSTEP                         7           3           1          
  100CL  103 3.00000E-05           8                     1    3           1
 -4  DISP        4    1
 -5  D1          1    2    1    0
 -5  D2          1    2    2    0
 -5  D3          1    2    3    0
 -5  ALL         1    2    0    0    1ALL
 -1         2 0.00000E+00 0.00000E+00 0.00000E+00
 -1        10 4.68959E-02 0.00000E+00 0.00000E+00
 -1        13-9.86637E-04-4.69110E-02 0.00000E+00
 -1        34-4.61515E-03 4.24298E-03 2.17063E-01
 -1        95 4.57861E-02-4.67701E-02 0.00000E+00
 -1       105 4.21576E-02 4.38395E-03 2.17271E-01
 -1       134-5.72498E-03-4.25325E-02 2.17302E-01
 -1       222 4.10476E-02-4.23915E-02 2.17510E-01
 -3
    1PSTEP                         8           3           1          
  100CL  103 3.00000E-05           8                     1    3           1
 -4  STRESS      6    1
 -5  SXX         1    4    1    1
 -5  SYY         1    4    2    2
 -5  SZZ         1    4    3    3
 -5  SXY         1    4    1    2
 -5  SYZ         1    4    2    3
 -5  SZX         1    4    3    1
 -1         2-2.55132E-01-2.72061E-01 3.90684E+01 2.31959E-01-6.41929E-01 5.33797E-01
 -1        10-2.55132E-01-2.72061E-01 3.90684E+01 2.31959E-01-6.41929E-01 5.33797E-01
 -1        13-2.55132E-01-2.72061E-01 3.90684E+01 2.31959E-01-6.41929E-01 5.33797E-01
 -1        34-2.55132E-01-2.72061E-01 3.90684E+01 2.31959E-01-6.41929E-01 5.33797E-01
 -1        95-2.55132E-01-2.72061E-01 3.90684E+01 2.31959E-01-6.41929E-01 5.33797E-01
 -1       105-2.55132E-01-2.72061E-01 3.90684E+01 2.31959E-01-6.41929E-01 5.33797E-01
 -1       134-2.55132E-01-2.72061E-01 3.90684E+01 2.31959E-01-6.41929E-01 5.33797E-01
 -1       222-2.55132E-01-2.72061E-01 3.90684E+01 2.31959E-01-6.41929E-01 5.33797E-01
 -3
    1PSTEP                         9           3           1          
  100CL  103 3.00000E-05           8                     1    3           1
 -4  PE          1    1
 -5  PE          1    1    0    0
 -1         2 1.96803E-01
 -1        10 1.96803E-01
 -1        13 1.96803E-01
 -1        34 1.96803E-01
 -1        95 1.96803E-01
 -1       105 1.96803E-01
 -1       134 1.96803E-01
 -1       222 1.96803E-01
 -3
    1PSTEP                        10           4           1          
  100CL  104 4.00000E-05           8                     1    4           1
 -4  DISP        4    1
 -5  D1          1    2    1    0
 -5  D2          1    2    2    0
 -5  D3          1    2    3    0
 -5  ALL         1    2    0    0    1ALL
 -1         2 0.00000E+00 0.00000E+00 0.00000E+00
 -1        10 5.41699E-02 0.00000E+00 0.00000E+00
 -1        13-9.51762E-04-5.41442E-02 0.00000E+00
 -1        34-2.93238E-03 3.10099E-03 2.57288E-01
 -1        95 5.31438E-02-5.40781E-02 0.00000E+00
 -1       105 5.11631E-02 3.16709E-03 2.57503E-01
 -1       134-3.95854E-03-5.09832E-02 2.57459E-01
 -1       222 5.01370E-02-5.09171E-02 2.57674E-01
 -3
    1PSTEP                        11           4           1          
  100CL  104 4.00000E-05           8                     1    4           1
 -4  STRESS      6    1
 -5  SXX         1    4    1    1
 -5  SYY         1    4    2    2
 -5  SZZ         1    4    3    3
 -5  SXY         1    4    1    2
 -5  SYZ         1    4    2    3
 -5  SZX         1    4    3    1
 -1         2-1.07372E-01-6.35633E-02 4.57512E+01 1.14196E-01-4.71949E-01 6.32949E-01
 -1        10-1.07372E-01-6.35633E-02 4.57512E+01 1.14196E-01-4.71949E-01 6.32949E-01
 -1        13-1.07372E-01-6.35633E-02 4.57512E+01 1.14196E-01-4.71949E-01 6.32949E-01
 -1        34-1.07372E-01-6.35633E-02 4.57512E+01 1.14196E-01-4.71949E-01 6.32949E-01
 -1        95-1.07372E-01-6.35633E-02 4.57512E+01 1.14196E-01-4.71949E-01 6.32949E-01
 -1       105-1.07372E-01-6.35633E-02 4.57512E+01 1.14196E-01-4.71949E-01 6.32949E-01
 -1       134-1.07372E-01-6.35633E-02 4.57512E+01 1.14196E-01-4.71949E-01 6.32949E-01
 -1       222-1.07372E-01-6.35633E-02 4.57512E+01 1.14196E-01-4.71949E-01 6.32949E-01
 -3
    1PSTEP                        12           4           1          
  100CL  104 4.00000E-05           8                     1    4           1
 -4  PE          1    1
 -5  PE          1    1    0    0
 -1         2 2.29288E-01
 -1        10 2.29288E-01
 -1        13 2.29288E-01
 -1        34 2.29288E-01
 -1        95 2.29288E-01
 -1       105 2.29288E-01
 -1       134 2.29288E-01
 -1       222 2.29288E-01
 -3
    1PSTEP                        13           5           1          
  100CL  105 5.50000E-05           8                     1    5           1
 -4  DISP        4    1
 -5  D1          1    2    1    0
 -5  D2          1    2    2    0
 -5  D3          1    2    3    0
 -5  ALL         1    2    0    0    1ALL
 -1         2 0.00000E+00 0.00000E+00 0.00000E+00
 -1        10 7.35507E-02 0.00000E+00 0.00000E+00
 -1        13-1.71648E-03-7.35595E-02 0.00000E+00
 -1        34-9.66558E-03 9.34890E-03 3.75683E-01
 -1        95 7.19766E-02-7.36970E-02 0.00000E+00
 -1       105 6.40275E-02 9.21140E-03 3.75492E-01
 -1       134-1.12397E-02-6.43470E-02 3.75506E-01
 -1       222 6.24533E-02-6.44845E-02 3.75314E-01
 -3
    1PSTEP                        14           5           1          
  100CL  105 5.50000E-05           8                     1    5           1
 -4  STRESS      6    1
 -5  SXX         1    4    1    1
 -5  SYY         1    4    2    2
 -5  SZZ         1    4    3    3
 -5  SXY         1    4    1    2
 -5  SYZ         1    4    2    3
 -5  SZX         1    4    3    1
 -1         2 3.10565E-01 2.87557E-01 6.40403E+01-2.77930E-01 1.12717E+00-1.20048E+00
 -1        10 3.10565E-01 2.87557E-01 6.40403E+01-2.77930E-01 1.12717E+00-1.20048E+00
 -1        13 3.10565E-01 2.87557E-01 6.40403E+01-2.77930E-01 1.12717E+00-1.20048E+00
 -1        34 3.10565E-01 2.87557E-01 6.40403E+01-2.77930E-01 1.12717E+00-1.20048E+00
 -1        95 3.10565E-01 2.87557E-01 6.40403E+01-2.77930E-01 1.12717E+00-1.20048E+00
 -1       105 3.10565E-01 2.87557E-01 6.40403E+01-2.77930E-01 1.12717E+00-1.20048E+00
 -1       134 3.10565E-01 2.87557E-01 6.40403E+01-2.77930E-01 1.12717E+00-1.20048E+00
 -1       222 3.10565E-01 2.87557E-01 6.40403E+01-2.77930E-01 1.12717E+00-1.20048E+00
 -3
    1PSTEP                        15           5           1          
  100CL  105 5.50000E-05           8                     1    5           1
 -4  PE          1    1
 -5  PE          1    1    0    0
 -1         2 3.19034E-01
 -1        10 3.19034E-01
 -1        13 3.19034E-01
 -1        34 3.19034E-01
 -1        95 3.19034E-01
 -1       105 3.19034E-01
 -1       134 3.19034E-01
 -1       222 3.19034E-01
 -3
    1PSTEP                        16           6           1          
  100CL  106 7.00000E-05           8                     1    6           1
 -4  DISP        4    1
 -5  D1          1    2    1    0
 -5  D2          1    2    2    0
 -5  D3          1    2    3    0
 -5  ALL         1    2    0    0    1ALL
 -1         2 0.00000E+00 0.00000E+00 0.00000E+00
 -1        10 9.78328E-02 0.00000E+00 0.00000E+00
 -1        13-1.10482E-03-9.78499E-02 0.00000E+00
 -1        34-4.61562E-03 3.83518E-03 5.45370E-01
 -1        95 9.66655E-02-9.77922E-02 0.00000E+00
 -1       105 9.31547E-02 3.89290E-03 5.45571E-01
 -1       134-5.78300E-03-9.39496E-02 5.45583E-01
 -1       222 9.19873E-02-9.38919E-02 5.45784E-01
 -3
    1PSTEP                        17           6           1          
  100CL  106 7.00000E-05           8                     1    6           1
 -4  STRESS      6    1
 -5  SXX         1    4    1    1
 -5  SYY         1    4    2    2
 -5  SZZ         1    4    3    3
 -5  SXY         1    4    1    2
 -5  SYZ         1    4    2    3
 -5  SZX         1    4    3    1
 -1         2-2.05160E-01-2.21154E-01 8.68821E+01 1.36663E-01-7.79717E-01 6.84766E-01
 -1        10-2.05160E-01-2.21154E-01 8.68821E+01 1.36663E-01-7.79717E-01 6.84766E-01
 -1        13-2.05160E-01-2.21154E-01 8.68821E+01 1.36663E-01-7.79717E-01 6.84766E-01
 -1        34-2.05160E-01-2.21154E-01 8.68821E+01 1.36663E-01-7.79717E-01 6.84766E-01
 -1        95-2.05160E-01-2.21154E-01 8.68821E+01 1.36663E-01-7.79717E-01 6.84766E-01
 -1       105-2.05160E-01-2.21154E-01 8.68821E+01 1.36663E-01-7.79717E-01 6.84766E-01
 -1       134-2.05160E-01-2.21154E-01 8.68821E+01 1.36663E-01-7.79717E-01 6.84766E-01
 -1       222-2.05160E-01-2.21154E-01 8.68821E+01 1.36663E-01-7.79717E-01 6.84766E-01
 -3
    1PSTEP                        18           6           1          
  100CL  106 7.00000E-05           8                     1    6           1
 -4  PE          1    1
 -5  PE          1    1    0    0
 -1         2 4.35571E-01
 -1        10 4.35571E-01
 -1        13 4.35571E-01
 -1        34 4.35571E-01
 -1        95 4.35571E-01
 -1       105 4.35571E-01
 -1       134 4.35571E-01
 -1       222 4.35571E-01
 -3
    1PSTEP                        19           7           1          
  100CL  107 8.50000E-05           8                     1    7           1
 -4  DISP        4    1
 -5  D1          1    2    1    0
 -5  D2          1    2    2    0
 -5  D3          1    2    3    0
 -5  ALL         1    2    0    0    1ALL
 -1         2 0.00000E+00 0.00000E+00 0.00000E+00
 -1        10 1.12730E-01 0.00000E+00 0.00000E+00
 -1        13-9.47822E-04-1.12729E-01 0.00000E+00
 -1        34-1.98116E-03 2.00959E-03 6.66663E-01
 -1        95 1.11733E-01-1.12675E-01 0.00000E+00
 -1       105 1.10699E-01 2.06397E-03 6.66823E-01
 -1       134-2.97821E-03-1.10676E-01 6.66786E-01
 -1       222 1.09702E-01-1.10621E-01 6.66946E-01
 -3
    1PSTEP                        20           7           1          
  100CL  107 8.50000E-05           8                     1    7           1
 -4  STRESS      6    1
 -5  SXX         1    4    1    1
 -5  SYY         1    4    2    2
 -5  SZZ         1    4    3    3
 -5  SXY         1    4    1    2
 -5  SYZ         1    4    2    3
 -5  SZX         1    4    3    1
 -1         2-1.16240E-01-8.09307E-02 1.02100E+02 1.44677E-01-5.21236E-01 7.16106E-01
 -1        10-1.16240E-01-8.09307E-02 1.02100E+02 1.44677E-01-5.21236E-01 7.16106E-01
 -1        13-1.16240E-01-8.09307E-02 1.02100E+02 1.44677E-01-5.21236E-01 7.16106E-01
 -1        34-1.16240E-01-8.09307E-02 1.02100E+02 1.44677E-01-5.21236E-01 7.16106E-01
 -1        95-1.16240E-01-8.09307E-02 1.02100E+02 1.44677E-01-5.21236E-01 7.16106E-01
 -1       105-1.16240E-01-8.09307E-02 1.02100E+02 1.44677E-01-5.21236E-01 7.16106E-01
 -1       134-1.16240E-01-8.09307E-02 1.02100E+02 1.44677E-01-5.21236E-01 7.16106E-01
 -1       222-1.16240E-01-8.09307E-02 1.02100E+02 1.44677E-01-5.21236E-01 7.16106E-01
 -3
    1PSTEP                        21           7           1          
  100CL  107 8.50000E-05           8                     1    7           1
 -4  PE          1    1
 -5  PE          1    1    0    0
 -1         2 5.11053E-01
 -1        10 5.11053E-01
 -1        13 5.11053E-01
 -1        34 5.11053E-01
 -1        95 5.11053E-01
 -1       105 5.11053E-01
 -1       134 5.11053E-01
 -1       222 5.11053E-01
 -3
    1PSTEP                        22           8           1          
  100CL  108 1.00000E-04           8                     1    8           1
 -4  DISP        4    1
 -5  D1          1    2    1    0
 -5  D2          1    2    2    0
 -5  D3          1    2    3    0
 -5  ALL         1    2    0    0    1ALL
 -1         2 0.00000E+00 0.00000E+00 0.00000E+00
 -1        10 1.26186E-01 0.00000E+00 0.00000E+00
 -1        13-1.27490E-03-1.26196E-01 0.00000E+00
 -1        34-6.78594E-03 6.26279E-03 7.90070E-01
 -1        95 1.24988E-01-1.26277E-01 0.00000E+00
 -1       105 1.19477E-01 6.18166E-03 7.89920E-01
 -1       134-7.98423E-03-1.20007E-01 7.89938E-01
 -1       222 1.18279E-01-1.20088E-01 7.89787E-01
 -3
    1PSTEP                        23           8           1          
  100CL  108 1.00000E-04           8                     1    8           1
 -4  STRESS      6    1
 -5  SXX         1    4    1    1
 -5  SYY         1    4    2    2
 -5  SZZ         1    4    3    3
 -5  SXY         1    4    1    2
 -5  SYZ         1    4    2    3
 -5  SZX         1    4    3    1
 -1         2 2.16311E-01 1.91478E-01 1.16625E+02-2.43303E-01 1.18224E+00-1.31845E+00
 -1        10 2.16311E-01 1.91478E-01 1.16625E+02-2.43303E-01 1.18224E+00-1.31845E+00
 -1        13 2.16311E-01 1.91478E-01 1.16625E+02-2.43303E-01 1.18224E+00-1.31845E+00
 -1        34 2.16311E-01 1.91478E-01 1.16625E+02-2.43303E-01 1.18224E+00-1.31845E+00
 -1        95 2.16311E-01 1.91478E-01 1.16625E+02-2.43303E-01 1.18224E+00-1.31845E+00
 -1       105 2.16311E-01 1.91478E-01 1.16625E+02-2.43303E-01 1.18224E+00-1.31845E+00
 -1       134 2.16311E-01 1.91478E-01 1.16625E+02-2.43303E-01 1.18224E+00-1.31845E+00
 -1       222 2.16311E-01 1.91478E-01 1.16625E+02-2.43303E-01 1.18224E+00-1.31845E+00
 -3
    1PSTEP                        24           8           1          
  100CL  108 1.00000E-04           8                     1    8           1
 -4  PE          1    1
 -5  PE          1    1    0    0
 -1         2 5.82311E-01
 -1        10 5.82311E-01
 -1        13 5.82311E-01
 -1        34 5.82311E-01
 -1        95 5.82311E-01
 -1       105 5.82311E-01
 -1       134 5.82311E-01
 -1       222 5.82311E-01
 -3
    1PSTEP                        25           9           1          
  100CL  109 1.15000E-04           8                     1    9           1
 -4  DISP        4    1
 -5  D1          1    2    1    0
 -5  D2          1    2    2    0
 -5  D3          1    2    3    0
 -5  ALL         1    2    0    0    1ALL
 -1         2 0.00000E+00 0.00000E+00 0.00000E+00
 -1        10 1.36888E-01 0.00000E+00 0.00000E+00
 -1        13-9.11562E-04-1.36898E-01 0.00000E+00
 -1        34-2.32310E-03 1.82368E-03 8.95708E-01
 -1        95 1.35911E-01-1.36830E-01 0.00000E+00
 -1       105 1.34499E-01 1.89214E-03 8.95924E-01
 -1       134-3.30016E-03-1.35008E-01 8.95922E-01
 -1       222 1.33522E-01-1.34940E-01 8.96138E-01
 -3
    1PSTEP                        26           9           1          
  100CL  109 1.15000E-04           8                     1    9           1
 -4  STRESS      6    1
 -5  SXX         1    4    1    1
 -5  SYY         1    4    2    2
 -5  SZZ         1    4    3    3
 -5  SXY         1    4    1    2
 -5  SYZ         1    4    2    3
 -5  SZX         1    4    3    1
 -1         2-2.23322E-01-2.25081E-01 1.27704E+02 2.21911E-01-1.24307E+00 1.22210E+00
 -1        10-2.23322E-01-2.25081E-01 1.27704E+02 2.21911E-01-1.24307E+00 1.22210E+00
 -1        13-2.23322E-01-2.25081E-01 1.27704E+02 2.21911E-01-1.24307E+00 1.22210E+00
 -1        34-2.23322E-01-2.25081E-01 1.27704E+02 2.21911E-01-1.24307E+00 1.22210E+00
 -1        95-2.23322E-01-2.25081E-01 1.27704E+02 2.21911E-01-1.24307E+00 1.22210E+00
 -1       105-2.23322E-01-2.25081E-01 1.27704E+02 2.21911E-01-1.24307E+00 1.22210E+00
 -1       134-2.23322E-01-2.25081E-01 1.27704E+02 2.21911E-01-1.24307E+00 1.22210E+00
 -1       222-2.23322E-01-2.25081E-01 1.27704E+02 2.21911E-01-1.24307E+00 1.22210E+00
 -3
    1PSTEP                        27           9           1          
  100CL  109 1.15000E-04           8                     1    9           1
 -4  PE          1    1
 -5  PE          1    1    0    0
 -1         2 6.39823E-01
 -1        10 6.39823E-01
 -1        13 6.39823E-01
 -1        34 6.39823E-01
 -1        95 6.39823E-01
 -1       105 6.39823E-01
 -1       134 6.39823E-01
 -1       222 6.39823E-01
 -3
    1PSTEP                        28          10           1          
  100CL  110 1.15937E-04           8                     1   10           1
 -4  DISP        4    1
 -5  D1          1    2    1    0
 -5  D2          1    2    2    0
 -5  D3          1    2    3    0
 -5  ALL         1    2    0    0    1ALL
 -1         2 0.00000E+00 0.00000E+00 0.00000E+00
 -1        10 1.37141E-01 0.00000E+00 0.00000E+00
 -1        13-8.88462E-04-1.37147E-01 0.00000E+00
 -1        34-1.87129E-03 1.46771E-03 8.98140E-01
 -1        95 1.36172E-01-1.37068E-01 0.00000E+00
 -1       105 1.35189E-01 1.54684E-03 8.98461E-01
 -1       134-2.84014E-03-1.35603E-01 8.98431E-01
 -1       222 1.34220E-01-1.35524E-01 8.98752E-01
 -3
    1PSTEP                        29          10           1          
  100CL  110 1.15937E-04           8                     1   10           1
 -4  STRESS      6    1
 -5  SXX         1    4    1    1
 -5  SYY         1    4    2    2
 -5  SZZ         1    4    3    3
 -5  SXY         1    4    1    2
 -5  SYZ         1    4    2    3
 -5  SZX         1    4    3    1
 -1         2-2.90989E-01-2.44082E-01 1.27860E+02 2.72011E-01-1.98007E+00 2.18801E+00
 -1        10-2.90989E-01-2.44082E-01 1.27860E+02 2.72011E-01-1.98007E+00 2.18801E+00
 -1        13-2.90989E-01-2.44082E-01 1.27860E+02 2.72011E-01-1.98007E+00 2.18801E+00
 -1        34-2.90989E-01-2.44082E-01 1.27860E+02 2.72011E-01-1.98007E+00 2.18801E+00
 -1        95-2.90989E-01-2.44082E-01 1.27860E+02 2.72011E-01-1.98007E+00 2.18801E+00
 -1       105-2.90989E-01-2.44082E-01 1.27860E+02 2.72011E-01-1.98007E+00 2.18801E+00
 -1       134-2.90989E-01-2.44082E-01 1.27860E+02 2.72011E-01-1.98007E+00 2.18801E+00
 -1       222-2.90989E-01-2.44082E-01 1.27860E+02 2.72011E-01-1.98007E+00 2.18801E+00
 -3
    1PSTEP                        30          10           1          
  100CL  110 1.15937E-04           8                     1   10           1
 -4  PE          1    1
 -5  PE          1    1    0    0
 -1         2 6.41154E-01
 -1        10 6.41154E-01
 -1        13 6.41154E-01
 -1        34 6.41154E-01
 -1        95 6.41154E-01
 -1       105 6.41154E-01
 -1       134 6.41154E-01
 -1       222 6.41154E-01
 -3
    1PSTEP                        31          11           1          
  100CL  111 1.16875E-04           8                     1   11           1
 -4  DISP        4    1
 -5  D1          1    2    1    0
 -5  D2          1    2    2    0
 -5  D3          1    2    3    0
 -5  ALL         1    2    0    0    1ALL
 -1         2 0.00000E+00 0.00000E+00 0.00000E+00
 -1        10 1.37278E-01 0.00000E+00 0.00000E+00
 -1        13-8.38758E-04-1.37282E-01 0.00000E+00
 -1        34-1.66629E-03 1.31210E-03 8.99275E-01
 -1        95 1.36324E-01-1.37175E-01 0.00000E+00
 -1       105 1.35497E-01 1.41905E-03 8.99633E-01
 -1       134-2.61977E-03-1.35861E-01 8.99589E-01
 -1       222 1.34543E-01-1.35754E-01 8.99947E-01
 -3
    1PSTEP                        32          11           1          
  100CL  111 1.16875E-04           8                     1   11           1
 -4  STRESS      6    1
 -5  SXX         1    4    1    1
 -5  SYY         1    4    2    2
 -5  SZZ         1    4    3    3
 -5  SXY         1    4    1    2
 -5  SYZ         1    4    2    3
 -5  SZX         1    4    3    1
 -1         2-5.36125E-01-5.49029E-01 1.27683E+02 4.39393E-01-2.17942E+00 2.44120E+00
 -1        10-5.36125E-01-5.49029E-01 1.27683E+02 4.39393E-01-2.17942E+00 2.44120E+00
 -1        13-5.36125E-01-5.49029E-01 1.27683E+02 4.39393E-01-2.17942E+00 2.44120E+00
 -1        34-5.36125E-01-5.49029E-01 1.27683E+02 4.39393E-01-2.17942E+00 2.44120E+00
 -1        95-5.36125E-01-5.49029E-01 1.27683E+02 4.39393E-01-2.17942E+00 2.44120E+00
 -1       105-5.36125E-01-5.49029E-01 1.27683E+02 4.39393E-01-2.17942E+00 2.44120E+00
 -1       134-5.36125E-01-5.49029E-01 1.27683E+02 4.39393E-01-2.17942E+00 2.44120E+00
 -1       222-5.36125E-01-5.49029E-01 1.27683E+02 4.39393E-01-2.17942E+00 2.44120E+00
 -3
    1PSTEP                        33          11           1          
  100CL  111 1.16875E-04           8                     1   11           1
 -4  PE          1    1
 -5  PE          1    1    0    0
 -1         2 6.41768E-01
 -1        10 6.41768E-01
 -1        13 6.41768E-01
 -1        34 6.41768E-01
 -1        95 6.41768E-01
 -1       105 6.41768E-01
 -1       134 6.41768E-01
 -1       222 6.41768E-01
 -3
    1PSTEP                        34          12           1          
  100CL  112 1.17227E-04           8                     1   12           1
 -4  DISP        4    1
 -5  D1          1    2    1    0
 -5  D2          1    2    2    0
 -5  D3          1    2    3    0
 -5  ALL         1    2    0    0    1ALL
 -1         2 0.00000E+00 0.00000E+00 0.00000E+00
 -1        10 1.37281E-01 0.00000E+00 0.00000E+00
 -1        13-8.32503E-04-1.37288E-01 0.00000E+00
 -1        34-1.67492E-03 1.32643E-03 8.99369E-01
 -1        95 1.36340E-01-1.37167E-01 0.00000E+00
 -1       105 1.35498E-01 1.44715E-03 8.99715E-01
 -1       134-2.61564E-03-1.35862E-01 8.99670E-01
 -1       222 1.34556E-01-1.35741E-01 9.00015E-01
 -3
    1PSTEP                        35          12           1          
  100CL  112 1.17227E-04           8                     1   12           1
 -4  STRESS      6    1
 -5  SXX         1    4    1    1
 -5  SYY         1    4    2    2
 -5  SZZ         1    4    3    3
 -5  SXY         1    4    1    2
 -5  SYZ         1    4    2    3
 -5  SZX         1    4    3    1
 -1         2-4.17758E-01-1.71763E-01 1.27807E+02 5.30557E-01-3.03928E+00 3.56898E+00
 -1        10-4.17758E-01-1.71763E-01 1.27807E+02 5.30557E-01-3.03928E+00 3.56898E+00
 -1        13-4.17758E-01-1.71763E-01 1.27807E+02 5.30557E-01-3.03928E+00 3.56898E+00
 -1        34-4.17758E-01-1.71763E-01 1.27807E+02 5.30557E-01-3.03928E+00 3.56898E+00
 -1        95-4.17758E-01-1.71763E-01 1.27807E+02 5.30557E-01-3.03928E+00 3.56898E+00
 -1       105-4.17758E-01-1.71763E-01 1.27807E+02 5.30557E-01-3.03928E+00 3.56898E+00
 -1       134-4.17758E-01-1.71763E-01 1.27807E+02 5.30557E-01-3.03928E+00 3.56898E+00
 -1       222-4.17758E-01-1.71763E-01 1.27807E+02 5.30557E-01-3.03928E+00 3.56898E+00
 -3
    1PSTEP                        36          12           1          
  100CL  112 1.17227E-04           8                     1   12           1
 -4  PE          1    1
 -5  PE          1    1    0    0
 -1         2 6.41810E-01
 -1        10 6.41810E-01
 -1        13 6.41810E-01
 -1        34 6.41810E-01
 -1        95 6.41810E-01
 -1       105 6.41810E-01
 -1       134 6.41810E-01
 -1       222 6.41810E-01
 -3
    1PSTEP                        37          13           1          
  100CL  113 1.17578E-04           8                     1   13           1
 -4  DISP        4    1
 -5  D1          1    2    1    0
 -5  D2          1    2    2    0
 -5  D3          1    2    3    0
 -5  ALL         1    2    0    0    1ALL
 -1         2 0.00000E+00 0.00000E+00 0.00000E+00
 -1        10 1.37266E-01 0.00000E+00 0.00000E+00
 -1        13-8.49450E-04-1.37281E-01 0.00000E+00
 -1        34-1.74226E-03 1.40924E-03 8.99347E-01
 -1        95 1.36325E-01-1.37166E-01 0.00000E+00
 -1       105 1.35432E-01 1.52380E-03 8.99674E-01
 -1       134-2.68357E-03-1.35780E-01 8.99620E-01
 -1       222 1.34492E-01-1.35666E-01 8.99946E-01
 -3
    1PSTEP                        38          13           1          
  100CL  113 1.17578E-04           8                     1   13           1
 -4  STRESS      6    1
 -5  SXX         1    4    1    1
 -5  SYY         1    4    2    2
 -5  SZZ         1    4    3    3
 -5  SXY         1    4    1    2
 -5  SYZ         1    4    2    3
 -5  SZX         1    4    3    1
 -1         2-7.44628E-01-7.55906E-01 1.17467E+02 6.56457E-01-2.81776E+00 3.32648E+00
 -1        10-7.44628E-01-7.55906E-01 1.17467E+02 6.56457E-01-2.81776E+00 3.32648E+00
 -1        13-7.44628E-01-7.55906E-01 1.17467E+02 6.56457E-01-2.81776E+00 3.32648E+00
 -1        34-7.44628E-01-7.55906E-01 1.17467E+02 6.56457E-01-2.81776E+00 3.32648E+00
 -1        95-7.44628E-01-7.55906E-01 1.17467E+02 6.56457E-01-2.81776E+00 3.32648E+00
 -1       105-7.44628E-01-7.55906E-01 1.17467E+02 6.56457E-01-2.81776E+00 3.32648E+00
 -1       134-7.44628E-01-7.55906E-01 1.17467E+02 6.56457E-01-2.81776E+00 3.32648E+00
 -1       222-7.44628E-01-7.55906E-01 1.17467E+02 6.56457E-01-2.81776E+00 3.32648E+00
 -3
    1PSTEP                        39          13           1          
  100CL  113 1.17578E-04           8                     1   13           1
 -4  PE          1    1
 -5  PE          1    1    0    0
 -1         2 6.41810E-01
 -1        10 6.41810E-01
 -1        13 6.41810E-01