    1C
    1UModel: beam     Date: 10-Mar-1998                                 
    1UUSER                                                              
    1UDATE              08.september.2023                               
    1UTIME              18:21:01                                        
    1UHOST                                                              
    1UPGM               CalculiX                                        
    1UVERSION           Version DEVELOPMENT                             
    1UCOMPILETIME       Fri Sep  8 17:06:58 CEST 2023                    
    1UDIR                                                               
    1UDBN                                                               
    1UMAT    1ANISO_PLAS                                                
    2C                            20                                     1
 -1         2 1.00000E+00 0.00000E+00 0.00000E+00
 -1        10 5.00000E-01 0.00000E+00 0.00000E+00
 -1        11 7.50000E-01 0.00000E+00 0.00000E+00
 -1        12 1.00000E+00 2.50000E-01 0.00000E+00
 -1        13 1.00000E+00 5.00000E-01 0.00000E+00
 -1        33 1.00000E+00 0.00000E+00 5.00000E-01
 -1        34 1.00000E+00 0.00000E+00 1.00000E+00
 -1        93 5.00000E-01 2.50000E-01 0.00000E+00
 -1        95 5.00000E-01 5.00000E-01 0.00000E+00
 -1        96 7.50000E-01 5.00000E-01 0.00000E+00
 -1       103 5.00000E-01 0.00000E+00 5.00000E-01
 -1       105 5.00000E-01 0.00000E+00 1.00000E+00
 -1       106 7.50000E-01 0.00000E+00 1.00000E+00
 -1       132 1.00000E+00 5.00000E-01 5.00000E-01
 -1       133 1.00000E+00 2.50000E-01 1.00000E+00
 -1       134 1.00000E+00 5.00000E-01 1.00000E+00
 -1       219 5.00000E-01 5.00000E-01 5.00000E-01
 -1       220 5.00000E-01 2.50000E-01 1.00000E+00
 -1       222 5.00000E-01 5.00000E-01 1.00000E+00
 -1       223 7.50000E-01 5.00000E-01 1.00000E+00
 -3
    3C                             1                                     1
 -1         1    4    0    1
 -2        10         2        13        95       105        34       134       222        11        12
 -2        96        93       103        33       132       219       106       133       223       220
 -3
    1PSTEP                         1           1           1          
  100CL  101 1.000000000          20                     0    1           1
 -4  DISP        4    1
 -5  D1          1    2    1    0
 -5  D2          1    2    2    0
 -5  D3          1    2    3    0
 -5  ALL         1    2    0    0    1ALL
 -1         2 0.00000E+00 0.00000E+00 0.00000E+00
 -1        10 5.03379E-03 0.00000E+00 0.00000E+00
 -1        11 2.51689E-03 9.81289E-16 0.00000E+00
 -1        12 9.48412E-16-2.51689E-03 0.00000E+00
 -1        13-2.37161E-16-5.03379E-03 0.00000E+00
 -1        33 8.67559E-15 7.25411E-15 1.01412E-02
 -1        34 3.41154E-14 2.94180E-14 2.02825E-02
 -1        93 5.03379E-03-2.51689E-03 0.00000E+00
 -1        95 5.03379E-03-5.03379E-03 0.00000E+00
 -1        96 2.51689E-03-5.03379E-03 0.00000E+00
 -1       103 5.03379E-03 7.34514E-15 1.01412E-02
 -1       105 5.03379E-03 2.94550E-14 2.02825E-02
 -1       106 2.51689E-03 3.03479E-14 2.02825E-02
 -1       132 8.28218E-15-5.03379E-03 1.01412E-02
 -1       133 3.49401E-14-2.51689E-03 2.02825E-02
 -1       134 3.37002E-14-5.03379E-03 2.02825E-02
 -1       219 5.03379E-03-5.03379E-03 1.01412E-02
 -1       220 5.03379E-03-2.51689E-03 2.02825E-02
 -1       222 5.03379E-03-5.03379E-03 2.02825E-02
 -1       223 2.51689E-03-5.03379E-03 2.02825E-02
 -3
    1PSTEP                         2           1           1          
  100CL  101 1.000000000          20                     0    1           1
 -4  STRESS      6    1
 -5  SXX         1    4    1    1
 -5  SYY         1    4    2    2
 -5  SZZ         1    4    3    3
 -5  SXY         1    4    1    2
 -5  SYZ         1    4    2    3
 -5  SZX         1    4    3    1
 -1         2-9.45702E-11-9.45042E-11 1.19995E+02 8.35279E-12-1.44440E-11 2.07711E-11
 -1        10-2.66101E-12-2.78536E-12 1.19995E+02 5.90842E-12-3.26252E-12-1.98966E-11
 -1        11-4.06161E-11-3.98987E-11 1.20006E+02 6.05134E-12-1.03258E-11-1.40251E-13
 -1        12 2.03936E-11 1.86527E-11 1.20006E+02 4.35390E-12 4.90242E-13 1.11392E-11
 -1        13-3.85942E-12-3.35030E-12 1.19995E+02 4.46346E-13 1.43601E-11 4.63729E-12
 -1        33-6.12523E-11-6.18094E-11 1.20006E+02-4.73881E-12 7.72298E-14 7.93620E-12
 -1        34 1.70451E-11 1.35792E-11 1.19995E+02 1.81363E-12 1.88999E-11-6.09362E-12
 -1        93 5.98578E-11 6.28811E-11 1.20006E+02 7.36717E-12 7.13020E-12-1.47406E-11
 -1        95 3.56600E-11 3.59551E-11 1.19995E+02 8.84139E-12 1.62941E-11-1.60643E-11
 -1        96 2.17976E-11 1.87768E-11 1.20006E+02 5.10855E-12 1.32572E-11-6.12710E-12
 -1       103-3.26025E-11-3.39464E-11 1.20006E+02 9.60459E-13-5.65611E-12-7.69051E-12
 -1       105-1.17503E-12-8.48344E-13 1.19995E+02 6.16035E-12 4.54627E-12 3.59208E-12
 -1       106 3.43495E-11 3.23408E-11 1.20006E+02 3.55948E-12 7.12140E-12-4.09101E-13
 -1       132-3.65714E-11-3.66372E-11 1.20006E+02-5.50940E-13 5.68019E-13 1.25441E-12
 -1       133 2.83391E-11 2.85463E-11 1.20006E+02 7.74060E-12 3.06103E-12-7.58117E-12
 -1       134 2.56693E-11 2.19715E-11 1.19995E+02 1.41385E-11-1.12025E-11-1.49974E-11
 -1       219-4.84345E-11-4.92516E-11 1.20006E+02 1.49832E-12 2.88534E-12-3.59426E-12
 -1       220 2.23872E-11 2.14138E-11 1.20006E+02 5.67408E-13 4.13909E-12 7.25380E-12
 -1       222 3.66233E-11 3.66944E-11 1.19995E+02-3.31142E-12 3.67641E-12 3.53560E-14
 -1       223 4.00733E-11 4.02832E-11 1.20006E+02 3.71853E-12-1.27658E-12-9.82866E-12
 -3
    1PSTEP                         3           1           1          
  100CL  101 1.000000000          20                     0    1           1
 -4  SDV        20    1
 -5  SDV1        1    1    0    0
 -5  SDV2        1    1    0    0
 -5  SDV3        1    1    0    0
 -5  SDV4        1    1    0    0
 -5  SDV5        1    1    0    0
 -5  SDV6        1    1    0    0
 -5  SDV7        1    1    0    0
 -5  SDV8        1    1    0    0
 -5  SDV9        1    1    0    0
 -5  SDV10       1    1    0    0
 -5  SDV11       1    1    0    0
 -5  SDV12       1    1    0    0
 -5  SDV13       1    1    0    0
 -5  SDV14       1    1    0    0
 -5  SDV15       1    1    0    0
 -5  SDV16       1    1    0    0
 -5  SDV17       1    1    0    0
 -5  SDV18       1    1    0    0
 -5  SDV19       1    1    0    0
 -5  SDV20       1    1    0    0
 -1         2 1.99992E-02-9.99960E-03-9.99960E-03 1.99992E-02 8.84830E-17 2.20033E-16
 -2          -1.53009E-16 1.99992E-02-9.99960E-03-9.99960E-03 1.99992E-02 8.84830E-17
 -2           2.20033E-16-1.53009E-16 6.66640E+00 6.66640E+00-1.33328E+01-5.89887E-14
 -2          -1.46689E-13 1.02006E-13
 -1        10 1.99992E-02-9.99960E-03-9.99960E-03 1.99992E-02 6.25892E-17-2.10769E-16
 -2          -3.45606E-17 1.99992E-02-9.99960E-03-9.99960E-03 1.99992E-02 6.25892E-17
 -2          -2.10769E-16-3.45606E-17 6.66640E+00 6.66640E+00-1.33328E+01-4.17261E-14
 -2           1.40513E-13 2.30404E-14
 -1        11 2.00010E-02-1.00005E-02-1.00005E-02 2.00010E-02 6.41032E-17-1.48571E-18
 -2          -1.09383E-16 2.00010E-02-1.00005E-02-1.00005E-02 2.00010E-02 6.41032E-17
 -2          -1.48571E-18-1.09383E-16 6.66700E+00 6.66700E+00-1.33340E+01-4.27354E-14
 -2           9.90473E-16 7.29222E-14
 -1        12 2.00010E-02-1.00005E-02-1.00005E-02 2.00010E-02 4.61219E-17 1.18000E-16
 -2           5.19324E-18 2.00010E-02-1.00005E-02-1.00005E-02 2.00010E-02 4.61219E-17
 -2           1.18000E-16 5.19324E-18 6.66700E+00 6.66700E+00-1.33340E+01-3.07479E-14
 -2          -7.86669E-14-3.46216E-15
 -1        13 1.99992E-02-9.99960E-03-9.99960E-03 1.99992E-02 4.72825E-18 4.91239E-17
 -2           1.52119E-16 1.99992E-02-9.99960E-03-9.99960E-03 1.99992E-02 4.72825E-18
 -2           4.91239E-17 1.52119E-16 6.66640E+00 6.66640E+00-1.33328E+01-3.15216E-15
 -2          -3.27492E-14-1.01413E-13
 -1        33 2.00010E-02-1.00005E-02-1.00005E-02 2.00010E-02-5.01992E-17 8.40700E-17
 -2           8.18112E-19 2.00010E-02-1.00005E-02-1.00005E-02 2.00010E-02-5.01992E-17
 -2           8.40700E-17 8.18112E-19 6.66700E+00 6.66700E+00-1.33340E+01 3.34661E-14
 -2          -5.60466E-14-5.45408E-16
 -1        34 1.99992E-02-9.99960E-03-9.99960E-03 1.99992E-02 1.92122E-17-6.45511E-17
 -2           2.00211E-16 1.99992E-02-9.99960E-03-9.99960E-03 1.99992E-02 1.92122E-17
 -2          -6.45511E-17 2.00211E-16 6.66640E+00 6.66640E+00-1.33328E+01-1.28081E-14
 -2           4.30340E-14-1.33474E-13
 -1        93 2.00010E-02-1.00005E-02-1.00005E-02 2.00010E-02 7.80421E-17-1.56151E-16
 -2           7.55317E-17 2.00010E-02-1.00005E-02-1.00005E-02 2.00010E-02 7.80421E-17
 -2          -1.56151E-16 7.55317E-17 6.66700E+00 6.66700E+00-1.33340E+01-5.20281E-14
 -2           1.04100E-13-5.03545E-14
 -1        95 1.99992E-02-9.99960E-03-9.99960E-03 1.99992E-02 9.36588E-17-1.70173E-16
 -2           1.72606E-16 1.99992E-02-9.99960E-03-9.99960E-03 1.99992E-02 9.36588E-17
 -2          -1.70173E-16 1.72606E-16 6.66640E+00 6.66640E+00-1.33328E+01-6.24392E-14
 -2           1.13449E-13-1.15071E-13
 -1        96 2.00010E-02-1.00005E-02-1.00005E-02 2.00010E-02 5.41160E-17-6.49057E-17
 -2           1.40436E-16 2.00010E-02-1.00005E-02-1.00005E-02 2.00010E-02 5.41160E-17
 -2          -6.49057E-17 1.40436E-16 6.66700E+00 6.66700E+00-1.33340E+01-3.60773E-14
 -2           4.32705E-14-9.36243E-14
 -1       103 2.00010E-02-1.00005E-02-1.00005E-02 2.00010E-02 1.01744E-17-8.14672E-17
 -2          -5.99165E-17 2.00010E-02-1.00005E-02-1.00005E-02 2.00010E-02 1.01744E-17
 -2          -8.14672E-17-5.99165E-17 6.66700E+00 6.66700E+00-1.33340E+01-6.78290E-15
 -2           5.43115E-14 3.99443E-14
 -1       105 1.99992E-02-9.99960E-03-9.99960E-03 1.99992E-02 6.52580E-17 3.80517E-17
 -2           4.81597E-17 1.99992E-02-9.99960E-03-9.99960E-03 1.99992E-02 6.52580E-17
 -2           3.80517E-17 4.81597E-17 6.66640E+00 6.66640E+00-1.33328E+01-4.35053E-14
 -2          -2.53678E-14-3.21064E-14
 -1       106 2.00010E-02-1.00005E-02-1.00005E-02 2.00010E-02 3.77063E-17-4.33370E-18
 -2           7.54385E-17 2.00010E-02-1.00005E-02-1.00005E-02 2.00010E-02 3.77063E-17
 -2          -4.33370E-18 7.54385E-17 6.66700E+00 6.66700E+00-1.33340E+01-2.51375E-14
 -2           2.88913E-15-5.02923E-14
 -1       132 2.00010E-02-1.00005E-02-1.00005E-02 2.00010E-02-5.83623E-18 1.32882E-17
 -2           6.01715E-18 2.00010E-02-1.00005E-02-1.00005E-02 2.00010E-02-5.83623E-18
 -2           1.32882E-17 6.01715E-18 6.66700E+00 6.66700E+00-1.33340E+01 3.89082E-15
 -2          -8.85882E-15-4.01143E-15
 -1       133 2.00010E-02-1.00005E-02-1.00005E-02 2.00010E-02 8.19978E-17-8.03090E-17
 -2           3.24262E-17 2.00010E-02-1.00005E-02-1.00005E-02 2.00010E-02 8.19978E-17
 -2          -8.03090E-17 3.24262E-17 6.66700E+00 6.66700E+00-1.33340E+01-5.46652E-14
 -2           5.35394E-14-2.16175E-14
 -1       134 1.99992E-02-9.99960E-03-9.99960E-03 1.99992E-02 1.49772E-16-1.58870E-16
 -2          -1.18670E-16 1.99992E-02-9.99960E-03-9.99960E-03 1.99992E-02 1.49772E-16
 -2          -1.58870E-16-1.18670E-16 6.66640E+00 6.66640E+00-1.33328E+01-9.98480E-14
 -2           1.05914E-13 7.91135E-14
 -1       219 2.00010E-02-1.00005E-02-1.00005E-02 2.00010E-02 1.58720E-17-3.80748E-17
 -2           3.05650E-17 2.00010E-02-1.00005E-02-1.00005E-02 2.00010E-02 1.58720E-17
 -2          -3.80748E-17 3.05650E-17 6.66700E+00 6.66700E+00-1.33340E+01-1.05814E-14
 -2           2.53832E-14-2.03767E-14
 -1       220 2.00010E-02-1.00005E-02-1.00005E-02 2.00010E-02 6.01068E-18 7.68411E-17
 -2           4.38463E-17 2.00010E-02-1.00005E-02-1.00005E-02 2.00010E-02 6.01068E-18
 -2           7.68411E-17 4.38463E-17 6.66700E+00 6.66700E+00-1.33340E+01-4.00712E-15
 -2          -5.12274E-14-2.92308E-14
 -1       222 1.99992E-02-9.99960E-03-9.99960E-03 1.99992E-02-3.50786E-17 3.74534E-19
 -2           3.89450E-17 1.99992E-02-9.99960E-03-9.99960E-03 1.99992E-02-3.50786E-17
 -2           3.74534E-19 3.89450E-17 6.66640E+00 6.66640E+00-1.33328E+01 2.33857E-14
 -2          -2.49689E-16-2.59633E-14
 -1       223 2.00010E-02-1.00005E-02-1.00005E-02 2.00010E-02 3.93913E-17-1.04117E-16
 -2          -1.35231E-17 2.00010E-02-1.00005E-02-1.00005E-02 2.00010E-02 3.93913E-17
 -2          -1.04117E-16-1.35231E-17 6.66700E+00 6.66700E+00-1.33340E+01-2.62608E-14
 -2           6.94114E-14 9.01539E-15
 -3
 9999
