    1C
    1UModel: beam     Date: 10-Mar-1998                                 
    1UUSER                                                              
    1UDATE              04.april.2025                                   
    1UTIME              12:29:12                                        
    1UHOST                                                              
    1UPGM               CalculiX                                        
    1UVERSION           Version DEVELOPMENT                             
    1UCOMPILETIME       Fri Apr  4 11:52:30 CEST 2025                    
    1UDIR                                                               
    1UDBN                                                               
    1UMAT    1EL                                                        
    2C                            20                                     1
 -1         2 1.00000E+00 0.00000E+00 0.00000E+00
 -1        10 5.00000E-01 0.00000E+00 0.00000E+00
 -1        11 7.50000E-01 0.00000E+00 0.00000E+00
 -1        12 1.00000E+00 2.50000E-01 0.00000E+00
 -1        13 1.00000E+00 5.00000E-01 0.00000E+00
 -1        33 1.00000E+00 0.00000E+00 5.00000E-01
 -1        34 1.00000E+00 0.00000E+00 1.00000E+00
 -1        93 5.00000E-01 2.50000E-01 0.00000E+00
 -1        95 5.00000E-01 5.00000E-01 0.00000E+00
 -1        96 7.50000E-01 5.00000E-01 0.00000E+00
 -1       103 5.00000E-01 0.00000E+00 5.00000E-01
 -1       105 5.00000E-01 0.00000E+00 1.00000E+00
 -1       106 7.50000E-01 0.00000E+00 1.00000E+00
 -1       132 1.00000E+00 5.00000E-01 5.00000E-01
 -1       133 1.00000E+00 2.50000E-01 1.00000E+00
 -1       134 1.00000E+00 5.00000E-01 1.00000E+00
 -1       219 5.00000E-01 5.00000E-01 5.00000E-01
 -1       220 5.00000E-01 2.50000E-01 1.00000E+00
 -1       222 5.00000E-01 5.00000E-01 1.00000E+00
 -1       223 7.50000E-01 5.00000E-01 1.00000E+00
 -3
    3C                             1                                     1
 -1         1    4    0    1
 -2        10         2        13        95       105        34       134       222        11        12
 -2        96        93       103        33       132       219       106       133       223       220
 -3
    1PSTEP                         1           1           1          
  100CL  101 1.000000000          20                     0    1           1
 -4  DISP        4    1
 -5  D1          1    2    1    0
 -5  D2          1    2    2    0
 -5  D3          1    2    3    0
 -5  ALL         1    2    0    0    1ALL
 -1         2 0.00000E+00 0.00000E+00 0.00000E+00
 -1        10 3.78379E-03 0.00000E+00 0.00000E+00
 -1        11 1.89189E-03 1.36153E-16 0.00000E+00
 -1        12 4.47944E-16-1.89189E-03 0.00000E+00
 -1        13 1.17875E-15-3.78379E-03 0.00000E+00
 -1        33-4.51876E-16 8.98163E-16 7.64124E-03
 -1        34-2.19773E-15 2.67124E-15 1.52825E-02
 -1        93 3.78379E-03-1.89189E-03 0.00000E+00
 -1        95 3.78379E-03-3.78379E-03 0.00000E+00
 -1        96 1.89189E-03-3.78379E-03 0.00000E+00
 -1       103 3.78379E-03 1.03138E-15 7.64124E-03
 -1       105 3.78379E-03 3.36344E-15 1.52825E-02
 -1       106 1.89189E-03 2.98615E-15 1.52825E-02
 -1       132 4.21770E-16-3.78379E-03 7.64124E-03
 -1       133-1.89080E-15-1.89189E-03 1.52825E-02
 -1       134-1.56442E-15-3.78379E-03 1.52825E-02
 -1       219 3.78379E-03-3.78379E-03 7.64124E-03
 -1       220 3.78379E-03-1.89189E-03 1.52825E-02
 -1       222 3.78379E-03-3.78379E-03 1.52825E-02
 -1       223 1.89189E-03-3.78379E-03 1.52825E-02
 -3
    1PSTEP                         2           1           1          
  100CL  101 1.000000000          20                     0    1           1
 -4  STRESS      6    1
 -5  SXX         1    4    1    1
 -5  SYY         1    4    2    2
 -5  SZZ         1    4    3    3
 -5  SXY         1    4    1    2
 -5  SYZ         1    4    2    3
 -5  SZX         1    4    3    1
 -1         2-1.05736E-11-1.58577E-11 1.19995E+02 6.51003E-13 3.63912E-12 1.59696E-12
 -1        10-2.53468E-11-1.66992E-11 1.19995E+02-2.49463E-12 3.01515E-12-2.23105E-12
 -1        11-2.70066E-12 6.61693E-15 1.20006E+02-1.41408E-12 2.71312E-12-3.14378E-13
 -1        12 4.99967E-13-7.43537E-12 1.20006E+02-1.06195E-12 5.90589E-12 7.21177E-13
 -1        13 9.92121E-12 8.20414E-14 1.19995E+02-1.50640E-12 6.94816E-12-1.12557E-12
 -1        33 1.53397E-12 8.36584E-13 1.20006E+02 1.84156E-12-4.66276E-12 3.17021E-12
 -1        34 1.34259E-11 1.76869E-11 1.19995E+02 1.62411E-13-2.19539E-13-1.93368E-12
 -1        93-1.83540E-12 3.02992E-12 1.20006E+02-2.04737E-12 2.57298E-12-1.38991E-13
 -1        95 8.50118E-12 9.29885E-12 1.19995E+02-2.77513E-13 2.18980E-12 6.30443E-13
 -1        96 4.11627E-12 1.37958E-13 1.20006E+02-1.14775E-12 3.81936E-12 4.47180E-13
 -1       103-1.38287E-11-1.02901E-11 1.20006E+02-1.02512E-12 1.98520E-12-1.30242E-12
 -1       105-1.59303E-11-1.68777E-11 1.19995E+02-2.59490E-12 3.14794E-12-6.84126E-12
 -1       106 2.50488E-12 3.63905E-12 1.20006E+02-1.68983E-13 1.43894E-13-4.28297E-12
 -1       132 8.56584E-12 6.47209E-12 1.20006E+02-2.44402E-13 1.20081E-12-1.10251E-12
 -1       133-5.10104E-12-1.13408E-13 1.20006E+02-9.47968E-14 4.47561E-12 5.64580E-13
 -1       134 1.01991E-11 1.60408E-11 1.19995E+02-1.79129E-12 8.13354E-12 3.03097E-12
 -1       219-7.80729E-13-2.12023E-12 1.20006E+02 6.70259E-13 1.94250E-12-2.17037E-12
 -1       220 8.36128E-12 6.82266E-12 1.20006E+02-1.47837E-12 3.41672E-12-3.60363E-12
 -1       222 7.72640E-12 6.34905E-12 1.19995E+02-1.64286E-12 3.82666E-12-6.20354E-13
 -1       223-2.53253E-12 3.12339E-13 1.20006E+02-8.26842E-13 4.92236E-12 1.80483E-12
 -3
    1PSTEP                         3           1           1          
  100CL  101 1.000000000          20                     0    1           1
 -4  PE          1    1
 -5  PE          1    1    0    0
 -1         2 1.49994E-02
 -1        10 1.49994E-02
 -1        11 1.50008E-02
 -1        12 1.50008E-02
 -1        13 1.49994E-02
 -1        33 1.50008E-02
 -1        34 1.49994E-02
 -1        93 1.50008E-02
 -1        95 1.49994E-02
 -1        96 1.50008E-02
 -1       103 1.50008E-02
 -1       105 1.49994E-02
 -1       106 1.50008E-02
 -1       132 1.50008E-02
 -1       133 1.50008E-02
 -1       134 1.49994E-02
 -1       219 1.50008E-02
 -1       220 1.50008E-02
 -1       222 1.49994E-02
 -1       223 1.50008E-02
 -3
    1PSTEP                         4           1           2          
  100CL  102 1.010000000          20                     0    2           1
 -4  DISP        4    1
 -5  D1          1    2    1    0
 -5  D2          1    2    2    0
 -5  D3          1    2    3    0
 -5  ALL         1    2    0    0    1ALL
 -1         2 0.00000E+00 0.00000E+00 0.00000E+00
 -1        10 1.00008E-02 0.00000E+00 0.00000E+00
 -1        11 5.00039E-03 2.82002E-16 0.00000E+00
 -1        12 5.54696E-16-5.00039E-03 0.00000E+00
 -1        13 9.94907E-16-1.00008E-02 0.00000E+00
 -1        33 1.15820E-15 1.95493E-15 2.00752E-02
 -1        34 3.23517E-15 6.12547E-15 4.01504E-02
 -1        93 1.00008E-02-5.00039E-03 0.00000E+00
 -1        95 1.00008E-02-1.00008E-02 0.00000E+00
 -1        96 5.00039E-03-1.00008E-02 0.00000E+00
 -1       103 1.00008E-02 1.84653E-15 2.00752E-02
 -1       105 1.00008E-02 6.27311E-15 4.01504E-02
 -1       106 5.00039E-03 6.18450E-15 4.01504E-02
 -1       132 1.58114E-15-1.00008E-02 2.00752E-02
 -1       133 3.25434E-15-5.00039E-03 4.01504E-02
 -1       134 3.17494E-15-1.00008E-02 4.01504E-02
 -1       219 1.00008E-02-1.00008E-02 2.00752E-02
 -1       220 1.00008E-02-5.00039E-03 4.01504E-02
 -1       222 1.00008E-02-1.00008E-02 4.01504E-02
 -1       223 5.00039E-03-1.00008E-02 4.01504E-02
 -3
    1PSTEP                         5           1           2          
  100CL  102 1.010000000          20                     0    2           1
 -4  STRESS      6    1
 -5  SXX         1    4    1    1
 -5  SYY         1    4    2    2
 -5  SZZ         1    4    3    3
 -5  SXY         1    4    1    2
 -5  SYZ         1    4    2    3
 -5  SZX         1    4    3    1
 -1         2 4.89698E-03 4.89698E-03 1.19985E+02 1.54590E-13 1.28411E-12 1.66144E-12
 -1        10 4.89698E-03 4.89698E-03 1.19985E+02 1.09942E-12 5.86523E-13 8.62677E-13
 -1        11 4.89742E-03 4.89742E-03 1.19996E+02 6.42419E-13 7.29499E-13 1.35766E-12
 -1        12 4.89742E-03 4.89742E-03 1.19996E+02 1.45486E-13 7.97566E-13 9.52111E-13
 -1        13 4.89698E-03 4.89698E-03 1.19985E+02 1.64194E-13 1.98290E-13 6.96839E-13
 -1        33 4.89742E-03 4.89742E-03 1.19996E+02-3.13994E-14 5.03488E-13 3.03414E-13
 -1        34 4.89698E-03 4.89698E-03 1.19985E+02 5.38654E-14 1.22161E-12 1.62671E-12
 -1        93 4.89742E-03 4.89742E-03 1.19996E+02 6.66351E-13 8.49755E-13 6.01824E-13
 -1        95 4.89698E-03 4.89698E-03 1.19985E+02 2.43751E-13 9.58392E-13 6.99090E-13
 -1        96 4.89742E-03 4.89742E-03 1.19996E+02 2.83842E-13 4.49755E-13 8.70876E-13
 -1       103 4.89742E-03 4.89742E-03 1.19996E+02 1.35662E-14-7.65241E-13-8.45824E-13
 -1       105 4.89698E-03 4.89698E-03 1.19985E+02-6.61463E-13-4.53151E-13 1.25760E-13
 -1       106 4.89742E-03 4.89742E-03 1.19996E+02-2.33094E-13 3.66043E-13 1.11682E-12
 -1       132 4.89742E-03 4.89742E-03 1.19996E+02 1.29062E-14-6.67015E-13-6.65450E-13
 -1       133 4.89742E-03 4.89742E-03 1.19996E+02 5.85669E-14 7.00824E-13 9.46872E-13
 -1       134 4.89698E-03 4.89698E-03 1.19985E+02 9.77652E-14-4.68278E-14 3.75284E-13
 -1       219 4.89742E-03 4.89742E-03 1.19996E+02 4.66269E-14-1.61881E-13-5.17258E-14
 -1       220 4.89742E-03 4.89742E-03 1.19996E+02-3.14024E-13 1.87898E-13 6.70320E-13
 -1       222 4.89698E-03 4.89698E-03 1.19985E+02 1.84124E-13 4.22948E-13 1.67134E-12
 -1       223 4.89742E-03 4.89742E-03 1.19996E+02 1.40228E-13 2.76566E-13 1.08877E-12
 -3
    1PSTEP                         6           1           2          
  100CL  102 1.010000000          20                     0    2           1
 -4  PE          1    1
 -5  PE          1    1    0    0
 -1         2 3.98664E-02
 -1        10 3.98664E-02
 -1        11 3.98700E-02
 -1        12 3.98700E-02
 -1        13 3.98664E-02
 -1        33 3.98700E-02
 -1        34 3.98664E-02
 -1        93 3.98700E-02
 -1        95 3.98664E-02
 -1        96 3.98700E-02
 -1       103 3.98700E-02
 -1       105 3.98664E-02
 -1       106 3.98700E-02
 -1       132 3.98700E-02
 -1       133 3.98700E-02
 -1       134 3.98664E-02
 -1       219 3.98700E-02
 -1       220 3.98700E-02
 -1       222 3.98664E-02
 -1       223 3.98700E-02
 -3
 9999
