    1C
    1UModel: beam     Date: 10-Mar-1998                                 
    1UUSER                                                              
    1UDATE              02.december.2023                                
    1UTIME              14:46:25                                        
    1UHOST                                                              
    1UPGM               CalculiX                                        
    1UVERSION           Version DEVELOPMENT                             
    1UCOMPILETIME       Sat Dec  2 14:42:26 CET 2023                    
    1UDIR                                                               
    1UDBN                                                               
    1UMAT    1EL                                                        
    2C                             8                                     1
 -1         2 1.00000E+00 0.00000E+00 0.00000E+00
 -1        10 5.00000E-01 0.00000E+00 0.00000E+00
 -1        13 1.00000E+00 5.00000E-01 0.00000E+00
 -1        34 1.00000E+00 0.00000E+00 1.00000E+00
 -1        95 5.00000E-01 5.00000E-01 0.00000E+00
 -1       105 5.00000E-01 0.00000E+00 1.00000E+00
 -1       134 1.00000E+00 5.00000E-01 1.00000E+00
 -1       222 5.00000E-01 5.00000E-01 1.00000E+00
 -3
    3C                             1                                     1
 -1         1    1    0    1
 -2        10         2        13        95       105        34       134       222
 -3
    1PSTEP                         1         333           1          
  100CL  101 7.66735E-06           8                     1    1           1
 -4  DISP        4    1
 -5  D1          1    2    1    0
 -5  D2          1    2    2    0
 -5  D3          1    2    3    0
 -5  ALL         1    2    0    0    1ALL
 -1         2 0.00000E+00 0.00000E+00 0.00000E+00
 -1        10 4.58066E-03 0.00000E+00 0.00000E+00
 -1        13-1.31803E-03-4.32142E-03 0.00000E+00
 -1        34-1.67912E-03 2.16114E-03 1.84671E-02
 -1        95 3.39296E-03-4.42374E-03 0.00000E+00
 -1       105 3.03187E-03 2.05883E-03 1.84305E-02
 -1       134-2.86682E-03-2.27804E-03 1.84196E-02
 -1       222 1.84418E-03-2.38036E-03 1.83830E-02
 -3
    1PSTEP                         2         333           1          
  100CL  101 7.66735E-06           8                     1    1           1
 -4  STRESS      6    1
 -5  SXX         1    4    1    1
 -5  SYY         1    4    2    2
 -5  SZZ         1    4    3    3
 -5  SXY         1    4    1    2
 -5  SYZ         1    4    2    3
 -5  SZX         1    4    3    1
 -1         2 4.43440E-01 4.75072E-01 4.11201E+00-1.34093E-01 1.31686E-01-1.04818E-01
 -1        10 4.43440E-01 4.75072E-01 4.11201E+00-1.34093E-01 1.31686E-01-1.04818E-01
 -1        13 4.43440E-01 4.75072E-01 4.11201E+00-1.34093E-01 1.31686E-01-1.04818E-01
 -1        34 4.43440E-01 4.75072E-01 4.11201E+00-1.34093E-01 1.31686E-01-1.04818E-01
 -1        95 4.43440E-01 4.75072E-01 4.11201E+00-1.34093E-01 1.31686E-01-1.04818E-01
 -1       105 4.43440E-01 4.75072E-01 4.11201E+00-1.34093E-01 1.31686E-01-1.04818E-01
 -1       134 4.43440E-01 4.75072E-01 4.11201E+00-1.34093E-01 1.31686E-01-1.04818E-01
 -1       222 4.43440E-01 4.75072E-01 4.11201E+00-1.34093E-01 1.31686E-01-1.04818E-01
 -3
    1PSTEP                         3         333           1          
  100CL  101 7.66735E-06           8                     1    1           1
 -4  PE          1    1
 -5  PE          1    1    0    0
 -1         2 1.83591E-02
 -1        10 1.83591E-02
 -1        13 1.83591E-02
 -1        34 1.83591E-02
 -1        95 1.83591E-02
 -1       105 1.83591E-02
 -1       134 1.83591E-02
 -1       222 1.83591E-02
 -3
    1PSTEP                         4         666           1          
  100CL  102 1.53347E-05           8                     1    2           1
 -4  DISP        4    1
 -5  D1          1    2    1    0
 -5  D2          1    2    2    0
 -5  D3          1    2    3    0
 -5  ALL         1    2    0    0    1ALL
 -1         2 0.00000E+00 0.00000E+00 0.00000E+00
 -1        10 2.27620E-02 0.00000E+00 0.00000E+00
 -1        13-3.31815E-03-2.24692E-02 0.00000E+00
 -1        34-7.75174E-03 8.89780E-03 9.73351E-02
 -1        95 1.95068E-02-2.25544E-02 0.00000E+00
 -1       105 1.50732E-02 8.81262E-03 9.72442E-02
 -1       134-1.10070E-02-1.36369E-02 9.72515E-02
 -1       222 1.18180E-02-1.37221E-02 9.71605E-02
 -3
    1PSTEP                         5         666           1          
  100CL  102 1.53347E-05           8                     1    2           1
 -4  STRESS      6    1
 -5  SXX         1    4    1    1
 -5  SYY         1    4    2    2
 -5  SZZ         1    4    3    3
 -5  SXY         1    4    1    2
 -5  SYZ         1    4    2    3
 -5  SZX         1    4    3    1
 -1         2 5.19515E-02 2.19111E-02 1.86294E+01-1.35651E-01 4.00109E-01-4.05740E-01
 -1        10 5.19515E-02 2.19111E-02 1.86294E+01-1.35651E-01 4.00109E-01-4.05740E-01
 -1        13 5.19515E-02 2.19111E-02 1.86294E+01-1.35651E-01 4.00109E-01-4.05740E-01
 -1        34 5.19515E-02 2.19111E-02 1.86294E+01-1.35651E-01 4.00109E-01-4.05740E-01
 -1        95 5.19515E-02 2.19111E-02 1.86294E+01-1.35651E-01 4.00109E-01-4.05740E-01
 -1       105 5.19515E-02 2.19111E-02 1.86294E+01-1.35651E-01 4.00109E-01-4.05740E-01
 -1       134 5.19515E-02 2.19111E-02 1.86294E+01-1.35651E-01 4.00109E-01-4.05740E-01
 -1       222 5.19515E-02 2.19111E-02 1.86294E+01-1.35651E-01 4.00109E-01-4.05740E-01
 -3
    1PSTEP                         6         666           1          
  100CL  102 1.53347E-05           8                     1    2           1
 -4  PE          1    1
 -5  PE          1    1    0    0
 -1         2 9.31009E-02
 -1        10 9.31009E-02
 -1        13 9.31009E-02
 -1        34 9.31009E-02
 -1        95 9.31009E-02
 -1       105 9.31009E-02
 -1       134 9.31009E-02
 -1       222 9.31009E-02
 -3
    1PSTEP                         7         999           1          
  100CL  103 2.30020E-05           8                     1    3           1
 -4  DISP        4    1
 -5  D1          1    2    1    0
 -5  D2          1    2    2    0
 -5  D3          1    2    3    0
 -5  ALL         1    2    0    0    1ALL
 -1         2 0.00000E+00 0.00000E+00 0.00000E+00
 -1        10 3.90678E-02 0.00000E+00 0.00000E+00
 -1        13-3.06564E-03-3.88312E-02 0.00000E+00
 -1        34-9.55527E-03 1.03051E-02 1.75747E-01
 -1        95 3.59330E-02-3.87605E-02 0.00000E+00
 -1       105 2.94433E-02 1.03758E-02 1.75867E-01
 -1       134-1.26901E-02-2.84538E-02 1.75886E-01
 -1       222 2.63085E-02-2.83831E-02 1.76006E-01
 -3
    1PSTEP                         8         999           1          
  100CL  103 2.30020E-05           8                     1    3           1
 -4  STRESS      6    1
 -5  SXX         1    4    1    1
 -5  SYY         1    4    2    2
 -5  SZZ         1    4    3    3
 -5  SXY         1    4    1    2
 -5  SYZ         1    4    2    3
 -5  SZX         1    4    3    1
 -1         2-3.13502E-01-3.25278E-01 3.21371E+01 1.32994E-01-2.35102E-01 1.88344E-01
 -1        10-3.13502E-01-3.25278E-01 3.21371E+01 1.32994E-01-2.35102E-01 1.88344E-01
 -1        13-3.13502E-01-3.25278E-01 3.21371E+01 1.32994E-01-2.35102E-01 1.88344E-01
 -1        34-3.13502E-01-3.25278E-01 3.21371E+01 1.32994E-01-2.35102E-01 1.88344E-01
 -1        95-3.13502E-01-3.25278E-01 3.21371E+01 1.32994E-01-2.35102E-01 1.88344E-01
 -1       105-3.13502E-01-3.25278E-01 3.21371E+01 1.32994E-01-2.35102E-01 1.88344E-01
 -1       134-3.13502E-01-3.25278E-01 3.21371E+01 1.32994E-01-2.35102E-01 1.88344E-01
 -1       222-3.13502E-01-3.25278E-01 3.21371E+01 1.32994E-01-2.35102E-01 1.88344E-01
 -3
    1PSTEP                         9         999           1          
  100CL  103 2.30020E-05           8                     1    3           1
 -4  PE          1    1
 -5  PE          1    1    0    0
 -1         2 1.62308E-01
 -1        10 1.62308E-01
 -1        13 1.62308E-01
 -1        34 1.62308E-01
 -1        95 1.62308E-01
 -1       105 1.62308E-01
 -1       134 1.62308E-01
 -1       222 1.62308E-01
 -3
    1PSTEP                        10        1332           1          
  100CL  104 3.06694E-05           8                     1    4           1
 -4  DISP        4    1
 -5  D1          1    2    1    0
 -5  D2          1    2    2    0
 -5  D3          1    2    3    0
 -5  ALL         1    2    0    0    1ALL
 -1         2 0.00000E+00 0.00000E+00 0.00000E+00
 -1        10 4.48568E-02 0.00000E+00 0.00000E+00
 -1        13-2.91276E-03-4.46156E-02 0.00000E+00
 -1        34-8.27103E-03 9.03579E-03 2.06018E-01
 -1        95 4.19128E-02-4.45857E-02 0.00000E+00
 -1       105 3.65545E-02 9.06572E-03 2.06130E-01
 -1       134-1.12150E-02-3.55548E-02 2.06124E-01
 -1       222 3.36105E-02-3.55248E-02 2.06236E-01
 -3
    1PSTEP                        11        1332           1          
  100CL  104 3.06694E-05           8                     1    4           1
 -4  STRESS      6    1
 -5  SXX         1    4    1    1
 -5  SYY         1    4    2    2
 -5  SZZ         1    4    3    3
 -5  SXY         1    4    1    2
 -5  SYZ         1    4    2    3
 -5  SZX         1    4    3    1
 -1         2-9.47007E-02-7.47043E-02 3.74528E+01 7.26432E-02-2.06486E-01 2.60638E-01
 -1        10-9.47007E-02-7.47043E-02 3.74528E+01 7.26432E-02-2.06486E-01 2.60638E-01
 -1        13-9.47007E-02-7.47043E-02 3.74528E+01 7.26432E-02-2.06486E-01 2.60638E-01
 -1        34-9.47007E-02-7.47043E-02 3.74528E+01 7.26432E-02-2.06486E-01 2.60638E-01
 -1        95-9.47007E-02-7.47043E-02 3.74528E+01 7.26432E-02-2.06486E-01 2.60638E-01
 -1       105-9.47007E-02-7.47043E-02 3.74528E+01 7.26432E-02-2.06486E-01 2.60638E-01
 -1       134-9.47007E-02-7.47043E-02 3.74528E+01 7.26432E-02-2.06486E-01 2.60638E-01
 -1       222-9.47007E-02-7.47043E-02 3.74528E+01 7.26432E-02-2.06486E-01 2.60638E-01
 -3
    1PSTEP                        12        1332           1          
  100CL  104 3.06694E-05           8                     1    4           1
 -4  PE          1    1
 -5  PE          1    1    0    0
 -1         2 1.87711E-01
 -1        10 1.87711E-01
 -1        13 1.87711E-01
 -1        34 1.87711E-01
 -1        95 1.87711E-01
 -1       105 1.87711E-01
 -1       134 1.87711E-01
 -1       222 1.87711E-01
 -3
    1PSTEP                        13        1665           1          
  100CL  105 3.83367E-05           8                     1    5           1
 -4  DISP        4    1
 -5  D1          1    2    1    0
 -5  D2          1    2    2    0
 -5  D3          1    2    3    0
 -5  ALL         1    2    0    0    1ALL
 -1         2 0.00000E+00 0.00000E+00 0.00000E+00
 -1        10 4.91257E-02 0.00000E+00 0.00000E+00
 -1        13-3.06602E-03-4.88944E-02 0.00000E+00
 -1        34-8.72327E-03 9.44355E-03 2.29441E-01
 -1        95 4.61184E-02-4.89460E-02 0.00000E+00
 -1       105 4.04611E-02 9.39195E-03 2.29448E-01
 -1       134-1.17306E-02-3.95072E-02 2.29450E-01
 -1       222 3.74538E-02-3.95588E-02 2.29457E-01
 -3
    1PSTEP                        14        1665           1          
  100CL  105 3.83367E-05           8                     1    5           1
 -4  STRESS      6    1
 -5  SXX         1    4    1    1
 -5  SYY         1    4    2    2
 -5  SZZ         1    4    3    3
 -5  SXY         1    4    1    2
 -5  SYZ         1    4    2    3
 -5  SZX         1    4    3    1
 -1         2 2.67074E-01 2.69209E-01 4.16333E+01-1.18370E-01 2.82620E-01-2.67719E-01
 -1        10 2.67074E-01 2.69209E-01 4.16333E+01-1.18370E-01 2.82620E-01-2.67719E-01
 -1        13 2.67074E-01 2.69209E-01 4.16333E+01-1.18370E-01 2.82620E-01-2.67719E-01
 -1        34 2.67074E-01 2.69209E-01 4.16333E+01-1.18370E-01 2.82620E-01-2.67719E-01
 -1        95 2.67074E-01 2.69209E-01 4.16333E+01-1.18370E-01 2.82620E-01-2.67719E-01
 -1       105 2.67074E-01 2.69209E-01 4.16333E+01-1.18370E-01 2.82620E-01-2.67719E-01
 -1       134 2.67074E-01 2.69209E-01 4.16333E+01-1.18370E-01 2.82620E-01-2.67719E-01
 -1       222 2.67074E-01 2.69209E-01 4.16333E+01-1.18370E-01 2.82620E-01-2.67719E-01
 -3
    1PSTEP                        15        1665           1          
  100CL  105 3.83367E-05           8                     1    5           1
 -4  PE          1    1
 -5  PE          1    1    0    0
 -1         2 2.06856E-01
 -1        10 2.06856E-01
 -1        13 2.06856E-01
 -1        34 2.06856E-01
 -1        95 2.06856E-01
 -1       105 2.06856E-01
 -1       134 2.06856E-01
 -1       222 2.06856E-01
 -3
    1PSTEP                        16        1998           1          
  100CL  106 4.60041E-05           8                     1    6           1
 -4  DISP        4    1
 -5  D1          1    2    1    0
 -5  D2          1    2    2    0
 -5  D3          1    2    3    0
 -5  ALL         1    2    0    0    1ALL
 -1         2 0.00000E+00 0.00000E+00 0.00000E+00
 -1        10 6.12935E-02 0.00000E+00 0.00000E+00
 -1        13-3.13808E-03-6.10626E-02 0.00000E+00
 -1        34-9.78458E-03 1.04755E-02 2.98478E-01
 -1        95 5.81883E-02-6.11020E-02 0.00000E+00
 -1       105 5.15418E-02 1.04361E-02 2.98503E-01
 -1       134-1.28898E-02-5.06249E-02 2.98512E-01
 -1       222 4.84366E-02-5.06643E-02 2.98537E-01
 -3
    1PSTEP                        17        1998           1          
  100CL  106 4.60041E-05           8                     1    6           1
 -4  STRESS      6    1
 -5  SXX         1    4    1    1
 -5  SYY         1    4    2    2
 -5  SZZ         1    4    3    3
 -5  SXY         1    4    1    2
 -5  SYZ         1    4    2    3
 -5  SZX         1    4    3    1
 -1         2 1.36559E-01 1.37860E-01 5.24298E+01-8.35854E-02 2.73686E-01-2.81642E-01
 -1        10 1.36559E-01 1.37860E-01 5.24298E+01-8.35854E-02 2.73686E-01-2.81642E-01
 -1        13 1.36559E-01 1.37860E-01 5.24298E+01-8.35854E-02 2.73686E-01-2.81642E-01
 -1        34 1.36559E-01 1.37860E-01 5.24298E+01-8.35854E-02 2.73686E-01-2.81642E-01
 -1        95 1.36559E-01 1.37860E-01 5.24298E+01-8.35854E-02 2.73686E-01-2.81642E-01
 -1       105 1.36559E-01 1.37860E-01 5.24298E+01-8.35854E-02 2.73686E-01-2.81642E-01
 -1       134 1.36559E-01 1.37860E-01 5.24298E+01-8.35854E-02 2.73686E-01-2.81642E-01
 -1       222 1.36559E-01 1.37860E-01 5.24298E+01-8.35854E-02 2.73686E-01-2.81642E-01
 -3
    1PSTEP                        18        1998           1          
  100CL  106 4.60041E-05           8                     1    6           1
 -4  PE          1    1
 -5  PE          1    1    0    0
 -1         2 2.61486E-01
 -1        10 2.61486E-01
 -1        13 2.61486E-01
 -1        34 2.61486E-01
 -1        95 2.61486E-01
 -1       105 2.61486E-01
 -1       134 2.61486E-01
 -1       222 2.61486E-01
 -3
    1PSTEP                        19        2331           1          
  100CL  107 5.36714E-05           8                     1    7           1
 -4  DISP        4    1
 -5  D1          1    2    1    0
 -5  D2          1    2    2    0
 -5  D3          1    2    3    0
 -5  ALL         1    2    0    0    1ALL
 -1         2 0.00000E+00 0.00000E+00 0.00000E+00
 -1        10 7.70312E-02 0.00000E+00 0.00000E+00
 -1        13-2.97192E-03-7.68173E-02 0.00000E+00
 -1        34-9.76618E-03 1.03665E-02 3.96603E-01
 -1        95 7.40405E-02-7.67962E-02 0.00000E+00
 -1       105 6.72462E-02 1.03876E-02 3.96715E-01
 -1       134-1.27569E-02-6.64286E-02 3.96723E-01
 -1       222 6.42555E-02-6.64075E-02 3.96835E-01
 -3
    1PSTEP                        20        2331           1          
  100CL  107 5.36714E-05           8                     1    7           1
 -4  STRESS      6    1
 -5  SXX         1    4    1    1
 -5  SYY         1    4    2    2
 -5  SZZ         1    4    3    3
 -5  SXY         1    4    1    2
 -5  SYZ         1    4    2    3
 -5  SZX         1    4    3    1
 -1         2-1.19523E-01-1.25428E-01 6.67492E+01 5.11757E-02-1.07753E-01 9.76094E-02
 -1        10-1.19523E-01-1.25428E-01 6.67492E+01 5.11757E-02-1.07753E-01 9.76094E-02
 -1        13-1.19523E-01-1.25428E-01 6.67492E+01 5.11757E-02-1.07753E-01 9.76094E-02
 -1        34-1.19523E-01-1.25428E-01 6.67492E+01 5.11757E-02-1.07753E-01 9.76094E-02
 -1        95-1.19523E-01-1.25428E-01 6.67492E+01 5.11757E-02-1.07753E-01 9.76094E-02
 -1       105-1.19523E-01-1.25428E-01 6.67492E+01 5.11757E-02-1.07753E-01 9.76094E-02
 -1       134-1.19523E-01-1.25428E-01 6.67492E+01 5.11757E-02-1.07753E-01 9.76094E-02
 -1       222-1.19523E-01-1.25428E-01 6.67492E+01 5.11757E-02-1.07753E-01 9.76094E-02
 -3
    1PSTEP                        21        2331           1          
  100CL  107 5.36714E-05           8                     1    7           1
 -4  PE          1    1
 -5  PE          1    1    0    0
 -1         2 3.34361E-01
 -1        10 3.34361E-01
 -1        13 3.34361E-01
 -1        34 3.34361E-01
 -1        95 3.34361E-01
 -1       105 3.34361E-01
 -1       134 3.34361E-01
 -1       222 3.34361E-01
 -3
    1PSTEP                        22        2664           1          
  100CL  108 6.13388E-05           8                     1    8           1
 -4  DISP        4    1
 -5  D1          1    2    1    0
 -5  D2          1    2    2    0
 -5  D3          1    2    3    0
 -5  ALL         1    2    0    0    1ALL
 -1         2 0.00000E+00 0.00000E+00 0.00000E+00
 -1        10 8.82431E-02 0.00000E+00 0.00000E+00
 -1        13-2.78703E-03-8.80335E-02 0.00000E+00
 -1        34-8.35976E-03 8.94004E-03 4.73605E-01
 -1        95 8.54228E-02-8.79974E-02 0.00000E+00
 -1       105 7.98501E-02 8.97612E-03 4.73753E-01
 -1       134-1.11800E-02-7.90591E-02 4.73758E-01
 -1       222 7.70298E-02-7.90230E-02 4.73907E-01
 -3
    1PSTEP                        23        2664           1          
  100CL  108 6.13388E-05           8                     1    8           1
 -4  STRESS      6    1
 -5  SXX         1    4    1    1
 -5  SYY         1    4    2    2
 -5  SZZ         1    4    3    3
 -5  SXY         1    4    1    2
 -5  SYZ         1    4    2    3
 -5  SZX         1    4    3    1
 -1         2-1.83060E-01-1.81631E-01 7.74148E+01 1.07418E-01-4.36707E-01 4.45197E-01
 -1        10-1.83060E-01-1.81631E-01 7.74148E+01 1.07418E-01-4.36707E-01 4.45197E-01
 -1        13-1.83060E-01-1.81631E-01 7.74148E+01 1.07418E-01-4.36707E-01 4.45197E-01
 -1        34-1.83060E-01-1.81631E-01 7.74148E+01 1.07418E-01-4.36707E-01 4.45197E-01
 -1        95-1.83060E-01-1.81631E-01 7.74148E+01 1.07418E-01-4.36707E-01 4.45197E-01
 -1       105-1.83060E-01-1.81631E-01 7.74148E+01 1.07418E-01-4.36707E-01 4.45197E-01
 -1       134-1.83060E-01-1.81631E-01 7.74148E+01 1.07418E-01-4.36707E-01 4.45197E-01
 -1       222-1.83060E-01-1.81631E-01 7.74148E+01 1.07418E-01-4.36707E-01 4.45197E-01
 -3
    1PSTEP                        24        2664           1          
  100CL  108 6.13388E-05           8                     1    8           1
 -4  PE          1    1
 -5  PE          1    1    0    0
 -1         2 3.88024E-01
 -1        10 3.88024E-01
 -1        13 3.88024E-01
 -1        34 3.88024E-01
 -1        95 3.88024E-01
 -1       105 3.88024E-01
 -1       134 3.88024E-01
 -1       222 3.88024E-01
 -3
    1PSTEP                        25        2997           1          
  100CL  109 6.90061E-05           8                     1    9           1
 -4  DISP        4    1
 -5  D1          1    2    1    0
 -5  D2          1    2    2    0
 -5  D3          1    2    3    0
 -5  ALL         1    2    0    0    1ALL
 -1         2 0.00000E+00 0.00000E+00 0.00000E+00
 -1        10 9.40129E-02 0.00000E+00 0.00000E+00
 -1        13-2.75847E-03-9.38059E-02 0.00000E+00
 -1        34-7.78601E-03 8.36440E-03 5.16031E-01
 -1        95 9.12505E-02-9.37997E-02 0.00000E+00
 -1       105 8.62229E-02 8.37059E-03 5.16110E-01
 -1       134-1.05484E-02-8.54364E-02 5.16115E-01
 -1       222 8.34605E-02-8.54302E-02 5.16195E-01
 -3
    1PSTEP                        26        2997           1          
  100CL  109 6.90061E-05           8                     1    9           1
 -4  STRESS      6    1
 -5  SXX         1    4    1    1
 -5  SYY         1    4    2    2
 -5  SZZ         1    4    3    3
 -5  SXY         1    4    1    2
 -5  SYZ         1    4    2    3
 -5  SZX         1    4    3    1
 -1         2-2.52286E-02-2.64171E-02 8.32434E+01 1.84158E-02-1.00145E-01 1.01143E-01
 -1        10-2.52286E-02-2.64171E-02 8.32434E+01 1.84158E-02-1.00145E-01 1.01143E-01
 -1        13-2.52286E-02-2.64171E-02 8.32434E+01 1.84158E-02-1.00145E-01 1.01143E-01
 -1        34-2.52286E-02-2.64171E-02 8.32434E+01 1.84158E-02-1.00145E-01 1.01143E-01
 -1        95-2.52286E-02-2.64171E-02 8.32434E+01 1.84158E-02-1.00145E-01 1.01143E-01
 -1       105-2.52286E-02-2.64171E-02 8.32434E+01 1.84158E-02-1.00145E-01 1.01143E-01
 -1       134-2.52286E-02-2.64171E-02 8.32434E+01 1.84158E-02-1.00145E-01 1.01143E-01
 -1       222-2.52286E-02-2.64171E-02 8.32434E+01 1.84158E-02-1.00145E-01 1.01143E-01
 -3
    1PSTEP                        27        2997           1          
  100CL  109 6.90061E-05           8                     1    9           1
 -4  PE          1    1
 -5  PE          1    1    0    0
 -1         2 4.16348E-01
 -1        10 4.16348E-01
 -1        13 4.16348E-01
 -1        34 4.16348E-01
 -1        95 4.16348E-01
 -1       105 4.16348E-01
 -1       134 4.16348E-01
 -1       222 4.16348E-01
 -3
    1PSTEP                        28        3330           1          
  100CL  110 7.66735E-05           8                     1   10           1
 -4  DISP        4    1
 -5  D1          1    2    1    0
 -5  D2          1    2    2    0
 -5  D3          1    2    3    0
 -5  ALL         1    2    0    0    1ALL
 -1         2 0.00000E+00 0.00000E+00 0.00000E+00
 -1        10 9.90524E-02 0.00000E+00 0.00000E+00
 -1        13-2.76386E-03-9.88470E-02 0.00000E+00
 -1        34-7.83695E-03 8.40145E-03 5.54546E-01
 -1        95 9.63043E-02-9.88624E-02 0.00000E+00
 -1       105 9.12312E-02 8.38605E-03 5.54586E-01
 -1       134-1.05851E-02-9.04615E-02 5.54591E-01
 -1       222 8.84831E-02-9.04769E-02 5.54630E-01
 -3
    1PSTEP                        29        3330           1          
  100CL  110 7.66735E-05           8                     1   10           1
 -4  STRESS      6    1
 -5  SXX         1    4    1    1
 -5  SYY         1    4    2    2
 -5  SZZ         1    4    3    3
 -5  SXY         1    4    1    2
 -5  SYZ         1    4    2    3
 -5  SZX         1    4    3    1
 -1         2 1.10309E-01 1.10537E-01 8.83887E+01-5.30400E-02 1.81007E-01-1.81739E-01
 -1        10 1.10309E-01 1.10537E-01 8.83887E+01-5.30400E-02 1.81007E-01-1.81739E-01
 -1        13 1.10309E-01 1.10537E-01 8.83887E+01-5.30400E-02 1.81007E-01-1.81739E-01
 -1        34 1.10309E-01 1.10537E-01 8.83887E+01-5.30400E-02 1.81007E-01-1.81739E-01
 -1        95 1.10309E-01 1.10537E-01 8.83887E+01-5.30400E-02 1.81007E-01-1.81739E-01
 -1       105 1.10309E-01 1.10537E-01 8.83887E+01-5.30400E-02 1.81007E-01-1.81739E-01
 -1       134 1.10309E-01 1.10537E-01 8.83887E+01-5.30400E-02 1.81007E-01-1.81739E-01
 -1       222 1.10309E-01 1.10537E-01 8.83887E+01-5.30400E-02 1.81007E-01-1.81739E-01
 -3
    1PSTEP                        30        3330           1          
  100CL  110 7.66735E-05           8                     1   10           1
 -4  PE          1    1
 -5  PE          1    1    0    0
 -1         2 4.41397E-01
 -1        10 4.41397E-01
 -1        13 4.41397E-01
 -1        34 4.41397E-01
 -1        95 4.41397E-01
 -1       105 4.41397E-01
 -1       134 4.41397E-01
 -1       222 4.41397E-01
 -3
    1PSTEP                        31        3663           1          
  100CL  111 8.43408E-05           8                     1   11           1
 -4  DISP        4    1
 -5  D1          1    2    1    0
 -5  D2          1    2    2    0
 -5  D3          1    2    3    0
 -5  ALL         1    2    0    0    1ALL
 -1         2 0.00000E+00 0.00000E+00 0.00000E+00
 -1        10 1.07810E-01 0.00000E+00 0.00000E+00
 -1        13-2.73446E-03-1.07608E-01 0.00000E+00
 -1        34-8.08758E-03 8.62631E-03 6.24756E-01
 -1        95 1.05089E-01-1.07623E-01 0.00000E+00
 -1       105 9.97359E-02 8.61109E-03 6.24795E-01
 -1       134-1.08086E-02-9.89968E-02 6.24801E-01
 -1       222 9.70148E-02-9.90120E-02 6.24840E-01
 -3
    1PSTEP                        32        3663           1          
  100CL  111 8.43408E-05           8                     1   11           1
 -4  STRESS      6    1
 -5  SXX         1    4    1    1
 -5  SYY         1    4    2    2
 -5  SZZ         1    4    3    3
 -5  SXY         1    4    1    2
 -5  SYZ         1    4    2    3
 -5  SZX         1    4    3    1
 -1         2 9.78227E-02 9.95673E-02 9.72071E+01-5.06372E-02 2.11525E-01-2.14842E-01
 -1        10 9.78227E-02 9.95673E-02 9.72071E+01-5.06372E-02 2.11525E-01-2.14842E-01
 -1        13 9.78227E-02 9.95673E-02 9.72071E+01-5.06372E-02 2.11525E-01-2.14842E-01
 -1        34 9.78227E-02 9.95673E-02 9.72071E+01-5.06372E-02 2.11525E-01-2.14842E-01
 -1        95 9.78227E-02 9.95673E-02 9.72071E+01-5.06372E-02 2.11525E-01-2.14842E-01
 -1       105 9.78227E-02 9.95673E-02 9.72071E+01-5.06372E-02 2.11525E-01-2.14842E-01
 -1       134 9.78227E-02 9.95673E-02 9.72071E+01-5.06372E-02 2.11525E-01-2.14842E-01
 -1       222 9.78227E-02 9.95673E-02 9.72071E+01-5.06372E-02 2.11525E-01-2.14842E-01
 -3
    1PSTEP                        33        3663           1          
  100CL  111 8.43408E-05           8                     1   11           1
 -4  PE          1    1
 -5  PE          1    1    0    0
 -1         2 4.85549E-01
 -1        10 4.85549E-01
 -1        13 4.85549E-01
 -1        34 4.85549E-01
 -1        95 4.85549E-01
 -1       105 4.85549E-01
 -1       134 4.85549E-01
 -1       222 4.85549E-01
 -3
    1PSTEP                        34        3996           1          
  100CL  112 9.20082E-05           8                     1   12           1
 -4  DISP        4    1
 -5  D1          1    2    1    0
 -5  D2          1    2    2    0
 -5  D3          1    2    3    0
 -5  ALL         1    2    0    0    1ALL
 -1         2 0.00000E+00 0.00000E+00 0.00000E+00
 -1        10 1.19856E-01 0.00000E+00 0.00000E+00
 -1        13-2.65026E-03-1.19662E-01 0.00000E+00
 -1        34-8.06002E-03 8.55901E-03 7.29285E-01
 -1        95 1.17207E-01-1.19663E-01 0.00000E+00
 -1       105 1.11797E-01 8.55818E-03 7.29347E-01
 -1       134-1.07092E-02-1.11104E-01 7.29352E-01
 -1       222 1.09148E-01-1.11104E-01 7.29414E-01
 -3
    1PSTEP                        35        3996           1          
  100CL  112 9.20082E-05           8                     1   12           1
 -4  STRESS      6    1
 -5  SXX         1    4    1    1
 -5  SYY         1    4    2    2
 -5  SZZ         1    4    3    3
 -5  SXY         1    4    1    2
 -5  SYZ         1    4    2    3
 -5  SZX         1    4    3    1
 -1         2 2.54632E-03 2.26848E-04 1.09578E+02-3.76602E-03 4.67398E-02-5.02096E-02
 -1        10 2.54632E-03 2.26848E-04 1.09578E+02-3.76602E-03 4.67398E-02-5.02096E-02
 -1        13 2.54632E-03 2.26848E-04 1.09578E+02-3.76602E-03 4.67398E-02-5.02096E-02
 -1        34 2.54632E-03 2.26848E-04 1.09578E+02-3.76602E-03 4.67398E-02-5.02096E-02
 -1        95 2.54632E-03 2.26848E-04 1.09578E+02-3.76602E-03 4.67398E-02-5.02096E-02
 -1       105 2.54632E-03 2.26848E-04 1.09578E+02-3.76602E-03 4.67398E-02-5.02096E-02
 -1       134 2.54632E-03 2.26848E-04 1.09578E+02-3.76602E-03 4.67398E-02-5.02096E-02
 -1       222 2.54632E-03 2.26848E-04 1.09578E+02-3.76602E-03 4.67398E-02-5.02096E-02
 -3
    1PSTEP                        36        3996           1          
  100CL  112 9.20082E-05           8                     1   12           1
 -4  PE          1    1
 -5  PE          1    1    0    0
 -1         2 5.47881E-01
 -1        10 5.47881E-01
 -1        13 5.47881E-01
 -1        34 5.47881E-01
 -1        95 5.47881E-01
 -1       105 5.47881E-01
 -1       134 5.47881E-01
 -1       222 5.47881E-01
 -3
    1PSTEP                        37        4329           1          
  100CL  113 9.96755E-05           8                     1   13           1
 -4  DISP        4    1
 -5  D1          1    2    1    0
 -5  D2          1    2    2    0
 -5  D3          1    2    3    0
 -5  ALL         1    2    0    0    1ALL
 -1         2 0.00000E+00 0.00000E+00 0.00000E+00
 -1        10 1.31617E-01 0.00000E+00 0.00000E+00
 -1        13-2.54218E-03-1.31428E-01 0.00000E+00
 -1        34-7.33729E-03 7.80291E-03 8.41405E-01
 -1        95 1.29066E-01-1.31420E-01 0.00000E+00
 -1       105 1.24271E-01 7.81123E-03 8.41483E-01
 -1       134-9.88873E-03-1.23617E-01 8.41488E-01
 -1       222 1.21719E-01-1.23609E-01 8.41567E-01
 -3
    1PSTEP                        38        4329           1          
  100CL  113 9.96755E-05           8                     1   13           1
 -4  STRESS      6    1
 -5  SXX         1    4    1    1
 -5  SYY         1    4    2    2
 -5  SZZ         1    4    3    3
 -5  SXY         1    4    1    2
 -5  SYZ         1    4    2    3
 -5  SZX         1    4    3    1
 -1         2-7.08675E-02-6.82049E-02 1.22065E+02 3.72853E-02-1.77406E-01 1.76073E-01
 -1        10-7.08675E-02-6.82049E-02 1.22065E+02 3.72853E-02-1.77406E-01 1.76073E-01
 -1        13-7.08675E-02-6.82049E-02 1.22065E+02 3.72853E-02-1.77406E-01 1.76073E-01
 -1        34-7.08675E-02-6.82049E-02 1.22065E+02 3.72853E-02-1.77406E-01 1.76073E-01
 -1        95-7.08675E-02-6.82049E-02 1.22065E+02 3.72853E-02-1.77406E-01 1.76073E-01
 -1       105-7.08675E-02-6.82049E-02 1.22065E+02 3.72853E-02-1.77406E-01 1.76073E-01
 -1       134-7.08675E-02-6.82049E-02 1.22065E+02 3.72853E-02-1.77406E-01 1.76073E-01
 -1       222-7.08675E-02-6.82049E-02 1.22065E+02 3.72853E-02-1.77406E-01 1.76073E-01
 -3
    1PSTEP                        39        4329           1          
  100CL  113 9.96755E-05           8                     1   13           1
 -4  PE          1    1
 -5  PE          1    1    0    0
 -1         2 6.10677E-01
 -1        10 6.10677E-01
 -1        13 6.10677E-01