    1C
    1UModel: beam     Date: 10-Mar-1998                                 
    1UUSER                                                              
    1UDATE              10.october.2025                                 
    1UTIME              13:19:14                                        
    1UHOST                                                              
    1UPGM               CalculiX                                        
    1UVERSION           Version DEVELOPMENT                             
    1UCOMPILETIME       Wed Oct  8 19:02:19 CEST 2025                    
    1UDIR                                                               
    1UDBN                                                               
    1UMAT    1EL                                                        
    2C                             8                                     1
 -1         2 1.00000E+00 0.00000E+00 0.00000E+00
 -1        10 5.00000E-01 0.00000E+00 0.00000E+00
 -1        13 1.00000E+00 5.00000E-01 0.00000E+00
 -1        34 1.00000E+00 0.00000E+00 1.00000E+00
 -1        95 5.00000E-01 5.00000E-01 0.00000E+00
 -1       105 5.00000E-01 0.00000E+00 1.00000E+00
 -1       134 1.00000E+00 5.00000E-01 1.00000E+00
 -1       222 5.00000E-01 5.00000E-01 1.00000E+00
 -3
    3C                             1                                     1
 -1         1    1    0    1
 -2        10         2        13        95       105        34       134       222
 -3
    1PSTEP                         1         333           1          
  100CL  101 7.66735E-06           8                     1    1           1
 -4  DISP        4    1
 -5  D1          1    2    1    0
 -5  D2          1    2    2    0
 -5  D3          1    2    3    0
 -5  ALL         1    2    0    0    1ALL
 -1         2 0.00000E+00 0.00000E+00 0.00000E+00
 -1        10 4.65976E-03 0.00000E+00 0.00000E+00
 -1        13-1.24107E-03-4.40384E-03 0.00000E+00
 -1        34-1.63442E-03 2.09979E-03 1.84240E-02
 -1        95 3.43097E-03-4.41426E-03 0.00000E+00
 -1       105 3.03762E-03 2.08938E-03 1.84201E-02
 -1       134-2.86321E-03-2.31612E-03 1.84192E-02
 -1       222 1.80884E-03-2.32653E-03 1.84153E-02
 -3
    1PSTEP                         2         333           1          
  100CL  101 7.66735E-06           8                     1    1           1
 -4  STRESS      6    1
 -5  SXX         1    4    1    1
 -5  SYY         1    4    2    2
 -5  SZZ         1    4    3    3
 -5  SXY         1    4    1    2
 -5  SYZ         1    4    2    3
 -5  SZX         1    4    3    1
 -1         2 4.40411E-01 4.73672E-01 4.11026E+00-1.36077E-01 1.33909E-01-1.07473E-01
 -1        10 4.40411E-01 4.73672E-01 4.11026E+00-1.36077E-01 1.33909E-01-1.07473E-01
 -1        13 4.40411E-01 4.73672E-01 4.11026E+00-1.36077E-01 1.33909E-01-1.07473E-01
 -1        34 4.40411E-01 4.73672E-01 4.11026E+00-1.36077E-01 1.33909E-01-1.07473E-01
 -1        95 4.40411E-01 4.73672E-01 4.11026E+00-1.36077E-01 1.33909E-01-1.07473E-01
 -1       105 4.40411E-01 4.73672E-01 4.11026E+00-1.36077E-01 1.33909E-01-1.07473E-01
 -1       134 4.40411E-01 4.73672E-01 4.11026E+00-1.36077E-01 1.33909E-01-1.07473E-01
 -1       222 4.40411E-01 4.73672E-01 4.11026E+00-1.36077E-01 1.33909E-01-1.07473E-01
 -3
    1PSTEP                         3         333           1          
  100CL  101 7.66735E-06           8                     1    1           1
 -4  PE          1    1
 -5  PE          1    1    0    0
 -1         2 1.83649E-02
 -1        10 1.83649E-02
 -1        13 1.83649E-02
 -1        34 1.83649E-02
 -1        95 1.83649E-02
 -1       105 1.83649E-02
 -1       134 1.83649E-02
 -1       222 1.83649E-02
 -3
    1PSTEP                         4         666           1          
  100CL  102 1.53347E-05           8                     1    2           1
 -4  DISP        4    1
 -5  D1          1    2    1    0
 -5  D2          1    2    2    0
 -5  D3          1    2    3    0
 -5  ALL         1    2    0    0    1ALL
 -1         2 0.00000E+00 0.00000E+00 0.00000E+00
 -1        10 2.28011E-02 0.00000E+00 0.00000E+00
 -1        13-3.24983E-03-2.25215E-02 0.00000E+00
 -1        34-7.70238E-03 8.81995E-03 9.72560E-02
 -1        95 1.95564E-02-2.25296E-02 0.00000E+00
 -1       105 1.51039E-02 8.81187E-03 9.72473E-02
 -1       134-1.09470E-02-1.37074E-02 9.72480E-02
 -1       222 1.18592E-02-1.37155E-02 9.72394E-02
 -3
    1PSTEP                         5         666           1          
  100CL  102 1.53347E-05           8                     1    2           1
 -4  STRESS      6    1
 -5  SXX         1    4    1    1
 -5  SYY         1    4    2    2
 -5  SZZ         1    4    3    3
 -5  SXY         1    4    1    2
 -5  SYZ         1    4    2    3
 -5  SZX         1    4    3    1
 -1         2 3.98193E-02 1.54735E-02 1.86238E+01-1.24760E-01 3.89589E-01-3.92588E-01
 -1        10 3.98193E-02 1.54735E-02 1.86238E+01-1.24760E-01 3.89589E-01-3.92588E-01
 -1        13 3.98193E-02 1.54735E-02 1.86238E+01-1.24760E-01 3.89589E-01-3.92588E-01
 -1        34 3.98193E-02 1.54735E-02 1.86238E+01-1.24760E-01 3.89589E-01-3.92588E-01
 -1        95 3.98193E-02 1.54735E-02 1.86238E+01-1.24760E-01 3.89589E-01-3.92588E-01
 -1       105 3.98193E-02 1.54735E-02 1.86238E+01-1.24760E-01 3.89589E-01-3.92588E-01
 -1       134 3.98193E-02 1.54735E-02 1.86238E+01-1.24760E-01 3.89589E-01-3.92588E-01
 -1       222 3.98193E-02 1.54735E-02 1.86238E+01-1.24760E-01 3.89589E-01-3.92588E-01
 -3
    1PSTEP                         6         666           1          
  100CL  102 1.53347E-05           8                     1    2           1
 -4  PE          1    1
 -5  PE          1    1    0    0
 -1         2 9.31106E-02
 -1        10 9.31106E-02
 -1        13 9.31106E-02
 -1        34 9.31106E-02
 -1        95 9.31106E-02
 -1       105 9.31106E-02
 -1       134 9.31106E-02
 -1       222 9.31106E-02
 -3
    1PSTEP                         7         999           1          
  100CL  103 2.30020E-05           8                     1    3           1
 -4  DISP        4    1
 -5  D1          1    2    1    0
 -5  D2          1    2    2    0
 -5  D3          1    2    3    0
 -5  ALL         1    2    0    0    1ALL
 -1         2 0.00000E+00 0.00000E+00 0.00000E+00
 -1        10 3.90224E-02 0.00000E+00 0.00000E+00
 -1        13-3.17316E-03-3.87886E-02 0.00000E+00
 -1        34-9.60774E-03 1.03968E-02 1.75877E-01
 -1        95 3.58421E-02-3.87815E-02 0.00000E+00
 -1       105 2.94075E-02 1.04039E-02 1.75890E-01
 -1       134-1.27881E-02-2.83844E-02 1.75891E-01
 -1       222 2.62272E-02-2.83773E-02 1.75904E-01
 -3
    1PSTEP                         8         999           1          
  100CL  103 2.30020E-05           8                     1    3           1
 -4  STRESS      6    1
 -5  SXX         1    4    1    1
 -5  SYY         1    4    2    2
 -5  SZZ         1    4    3    3
 -5  SXY         1    4    1    2
 -5  SYZ         1    4    2    3
 -5  SZX         1    4    3    1
 -1         2-3.20006E-01-3.27883E-01 3.21363E+01 1.36968E-01-2.48341E-01 2.07371E-01
 -1        10-3.20006E-01-3.27883E-01 3.21363E+01 1.36968E-01-2.48341E-01 2.07371E-01
 -1        13-3.20006E-01-3.27883E-01 3.21363E+01 1.36968E-01-2.48341E-01 2.07371E-01
 -1        34-3.20006E-01-3.27883E-01 3.21363E+01 1.36968E-01-2.48341E-01 2.07371E-01
 -1        95-3.20006E-01-3.27883E-01 3.21363E+01 1.36968E-01-2.48341E-01 2.07371E-01
 -1       105-3.20006E-01-3.27883E-01 3.21363E+01 1.36968E-01-2.48341E-01 2.07371E-01
 -1       134-3.20006E-01-3.27883E-01 3.21363E+01 1.36968E-01-2.48341E-01 2.07371E-01
 -1       222-3.20006E-01-3.27883E-01 3.21363E+01 1.36968E-01-2.48341E-01 2.07371E-01
 -3
    1PSTEP                         9         999           1          
  100CL  103 2.30020E-05           8                     1    3           1
 -4  PE          1    1
 -5  PE          1    1    0    0
 -1         2 1.62330E-01
 -1        10 1.62330E-01
 -1        13 1.62330E-01
 -1        34 1.62330E-01
 -1        95 1.62330E-01
 -1       105 1.62330E-01
 -1       134 1.62330E-01
 -1       222 1.62330E-01
 -3
    1PSTEP                        10        1332           1          
  100CL  104 3.06694E-05           8                     1    4           1
 -4  DISP        4    1
 -5  D1          1    2    1    0
 -5  D2          1    2    2    0
 -5  D3          1    2    3    0
 -5  ALL         1    2    0    0    1ALL
 -1         2 0.00000E+00 0.00000E+00 0.00000E+00
 -1        10 4.48159E-02 0.00000E+00 0.00000E+00
 -1        13-2.98456E-03-4.45850E-02 0.00000E+00
 -1        34-8.41554E-03 9.16503E-03 2.06033E-01
 -1        95 4.18294E-02-4.45829E-02 0.00000E+00
 -1       105 3.63984E-02 9.16711E-03 2.06043E-01
 -1       134-1.14021E-02-3.54180E-02 2.06043E-01
 -1       222 3.34119E-02-3.54159E-02 2.06052E-01
 -3
    1PSTEP                        11        1332           1          
  100CL  104 3.06694E-05           8                     1    4           1
 -4  STRESS      6    1
 -5  SXX         1    4    1    1
 -5  SYY         1    4    2    2
 -5  SZZ         1    4    3    3
 -5  SXY         1    4    1    2
 -5  SYZ         1    4    2    3
 -5  SZX         1    4    3    1
 -1         2-7.12674E-02-6.78853E-02 3.74575E+01 4.94261E-02-1.62750E-01 1.73377E-01
 -1        10-7.12674E-02-6.78853E-02 3.74575E+01 4.94261E-02-1.62750E-01 1.73377E-01
 -1        13-7.12674E-02-6.78853E-02 3.74575E+01 4.94261E-02-1.62750E-01 1.73377E-01
 -1        34-7.12674E-02-6.78853E-02 3.74575E+01 4.94261E-02-1.62750E-01 1.73377E-01
 -1        95-7.12674E-02-6.78853E-02 3.74575E+01 4.94261E-02-1.62750E-01 1.73377E-01
 -1       105-7.12674E-02-6.78853E-02 3.74575E+01 4.94261E-02-1.62750E-01 1.73377E-01
 -1       134-7.12674E-02-6.78853E-02 3.74575E+01 4.94261E-02-1.62750E-01 1.73377E-01
 -1       222-7.12674E-02-6.78853E-02 3.74575E+01 4.94261E-02-1.62750E-01 1.73377E-01
 -3
    1PSTEP                        12        1332           1          
  100CL  104 3.06694E-05           8                     1    4           1
 -4  PE          1    1
 -5  PE          1    1    0    0
 -1         2 1.87647E-01
 -1        10 1.87647E-01
 -1        13 1.87647E-01
 -1        34 1.87647E-01
 -1        95 1.87647E-01
 -1       105 1.87647E-01
 -1       134 1.87647E-01
 -1       222 1.87647E-01
 -3
    1PSTEP                        13        1665           1          
  100CL  105 3.83367E-05           8                     1    5           1
 -4  DISP        4    1
 -5  D1          1    2    1    0
 -5  D2          1    2    2    0
 -5  D3          1    2    3    0
 -5  ALL         1    2    0    0    1ALL
 -1         2 0.00000E+00 0.00000E+00 0.00000E+00
 -1        10 4.91327E-02 0.00000E+00 0.00000E+00
 -1        13-3.01568E-03-4.89035E-02 0.00000E+00
 -1        34-8.62596E-03 9.37436E-03 2.29284E-01
 -1        95 4.61227E-02-4.89091E-02 0.00000E+00
 -1       105 4.05125E-02 9.36879E-03 2.29284E-01
 -1       134-1.16359E-02-3.95348E-02 2.29285E-01
 -1       222 3.75025E-02-3.95404E-02 2.29285E-01
 -3
    1PSTEP                        14        1665           1          
  100CL  105 3.83367E-05           8                     1    5           1
 -4  STRESS      6    1
 -5  SXX         1    4    1    1
 -5  SYY         1    4    2    2
 -5  SZZ         1    4    3    3
 -5  SXY         1    4    1    2
 -5  SYZ         1    4    2    3
 -5  SZX         1    4    3    1
 -1         2 2.67651E-01 2.69296E-01 4.16075E+01-1.22116E-01 2.88229E-01-2.82563E-01
 -1        10 2.67651E-01 2.69296E-01 4.16075E+01-1.22116E-01 2.88229E-01-2.82563E-01
 -1        13 2.67651E-01 2.69296E-01 4.16075E+01-1.22116E-01 2.88229E-01-2.82563E-01
 -1        34 2.67651E-01 2.69296E-01 4.16075E+01-1.22116E-01 2.88229E-01-2.82563E-01
 -1        95 2.67651E-01 2.69296E-01 4.16075E+01-1.22116E-01 2.88229E-01-2.82563E-01
 -1       105 2.67651E-01 2.69296E-01 4.16075E+01-1.22116E-01 2.88229E-01-2.82563E-01
 -1       134 2.67651E-01 2.69296E-01 4.16075E+01-1.22116E-01 2.88229E-01-2.82563E-01
 -1       222 2.67651E-01 2.69296E-01 4.16075E+01-1.22116E-01 2.88229E-01-2.82563E-01
 -3
    1PSTEP                        15        1665           1          
  100CL  105 3.83367E-05           8                     1    5           1
 -4  PE          1    1
 -5  PE          1    1    0    0
 -1         2 2.06727E-01
 -1        10 2.06727E-01
 -1        13 2.06727E-01
 -1        34 2.06727E-01
 -1        95 2.06727E-01
 -1       105 2.06727E-01
 -1       134 2.06727E-01
 -1       222 2.06727E-01
 -3
    1PSTEP                        16        1998           1          
  100CL  106 4.60041E-05           8                     1    6           1
 -4  DISP        4    1
 -5  D1          1    2    1    0
 -5  D2          1    2    2    0
 -5  D3          1    2    3    0
 -5  ALL         1    2    0    0    1ALL
 -1         2 0.00000E+00 0.00000E+00 0.00000E+00
 -1        10 6.13257E-02 0.00000E+00 0.00000E+00
 -1        13-3.10776E-03-6.11031E-02 0.00000E+00
 -1        34-9.69669E-03 1.04233E-02 2.98577E-01
 -1        95 5.82214E-02-6.11067E-02 0.00000E+00
 -1       105 5.16325E-02 1.04198E-02 2.98579E-01
 -1       134-1.28010E-02-5.06833E-02 2.98580E-01
 -1       222 4.85282E-02-5.06868E-02 2.98583E-01
 -3
    1PSTEP                        17        1998           1          
  100CL  106 4.60041E-05           8                     1    6           1
 -4  STRESS      6    1
 -5  SXX         1    4    1    1
 -5  SYY         1    4    2    2
 -5  SZZ         1    4    3    3
 -5  SXY         1    4    1    2
 -5  SYZ         1    4    2    3
 -5  SZX         1    4    3    1
 -1         2 1.36985E-01 1.34252E-01 5.24407E+01-8.06439E-02 2.66553E-01-2.70342E-01
 -1        10 1.36985E-01 1.34252E-01 5.24407E+01-8.06439E-02 2.66553E-01-2.70342E-01
 -1        13 1.36985E-01 1.34252E-01 5.24407E+01-8.06439E-02 2.66553E-01-2.70342E-01
 -1        34 1.36985E-01 1.34252E-01 5.24407E+01-8.06439E-02 2.66553E-01-2.70342E-01
 -1        95 1.36985E-01 1.34252E-01 5.24407E+01-8.06439E-02 2.66553E-01-2.70342E-01
 -1       105 1.36985E-01 1.34252E-01 5.24407E+01-8.06439E-02 2.66553E-01-2.70342E-01
 -1       134 1.36985E-01 1.34252E-01 5.24407E+01-8.06439E-02 2.66553E-01-2.70342E-01
 -1       222 1.36985E-01 1.34252E-01 5.24407E+01-8.06439E-02 2.66553E-01-2.70342E-01
 -3
    1PSTEP                        18        1998           1          
  100CL  106 4.60041E-05           8                     1    6           1
 -4  PE          1    1
 -5  PE          1    1    0    0
 -1         2 2.61547E-01
 -1        10 2.61547E-01
 -1        13 2.61547E-01
 -1        34 2.61547E-01
 -1        95 2.61547E-01
 -1       105 2.61547E-01
 -1       134 2.61547E-01
 -1       222 2.61547E-01
 -3
    1PSTEP                        19        2331           1          
  100CL  107 5.36714E-05           8                     1    7           1
 -4  DISP        4    1
 -5  D1          1    2    1    0
 -5  D2          1    2    2    0
 -5  D3          1    2    3    0
 -5  ALL         1    2    0    0    1ALL
 -1         2 0.00000E+00 0.00000E+00 0.00000E+00
 -1        10 7.70521E-02 0.00000E+00 0.00000E+00
 -1        13-3.01504E-03-7.68398E-02 0.00000E+00
 -1        34-9.81315E-03 1.04639E-02 3.96938E-01
 -1        95 7.40350E-02-7.68379E-02 0.00000E+00
 -1       105 6.72369E-02 1.04658E-02 3.96949E-01
 -1       134-1.28302E-02-6.63739E-02 3.96950E-01
 -1       222 6.42199E-02-6.63720E-02 3.96961E-01
 -3
    1PSTEP                        20        2331           1          
  100CL  107 5.36714E-05           8                     1    7           1
 -4  STRESS      6    1
 -5  SXX         1    4    1    1
 -5  SYY         1    4    2    2
 -5  SZZ         1    4    3    3
 -5  SXY         1    4    1    2
 -5  SYZ         1    4    2    3
 -5  SZX         1    4    3    1
 -1         2-1.21505E-01-1.23229E-01 6.67837E+01 5.00847E-02-9.72579E-02 8.83035E-02
 -1        10-1.21505E-01-1.23229E-01 6.67837E+01 5.00847E-02-9.72579E-02 8.83035E-02
 -1        13-1.21505E-01-1.23229E-01 6.67837E+01 5.00847E-02-9.72579E-02 8.83035E-02
 -1        34-1.21505E-01-1.23229E-01 6.67837E+01 5.00847E-02-9.72579E-02 8.83035E-02
 -1        95-1.21505E-01-1.23229E-01 6.67837E+01 5.00847E-02-9.72579E-02 8.83035E-02
 -1       105-1.21505E-01-1.23229E-01 6.67837E+01 5.00847E-02-9.72579E-02 8.83035E-02
 -1       134-1.21505E-01-1.23229E-01 6.67837E+01 5.00847E-02-9.72579E-02 8.83035E-02
 -1       222-1.21505E-01-1.23229E-01 6.67837E+01 5.00847E-02-9.72579E-02 8.83035E-02
 -3
    1PSTEP                        21        2331           1          
  100CL  107 5.36714E-05           8                     1    7           1
 -4  PE          1    1
 -5  PE          1    1    0    0
 -1         2 3.34532E-01
 -1        10 3.34532E-01
 -1        13 3.34532E-01
 -1        34 3.34532E-01
 -1        95 3.34532E-01
 -1       105 3.34532E-01
 -1       134 3.34532E-01
 -1       222 3.34532E-01
 -3
    1PSTEP                        22        2664           1          
  100CL  108 6.13388E-05           8                     1    8           1
 -4  DISP        4    1
 -5  D1          1    2    1    0
 -5  D2          1    2    2    0
 -5  D3          1    2    3    0
 -5  ALL         1    2    0    0    1ALL
 -1         2 0.00000E+00 0.00000E+00 0.00000E+00
 -1        10 8.82250E-02 0.00000E+00 0.00000E+00
 -1        13-2.85514E-03-8.80184E-02 0.00000E+00
 -1        34-8.55926E-03 9.17557E-03 4.73784E-01
 -1        95 8.53666E-02-8.80151E-02 0.00000E+00
 -1       105 7.96625E-02 9.17883E-03 4.73799E-01
 -1       134-1.14176E-02-7.88395E-02 4.73799E-01
 -1       222 7.68041E-02-7.88363E-02 4.73813E-01
 -3
    1PSTEP                        23        2664           1          
  100CL  108 6.13388E-05           8                     1    8           1
 -4  STRESS      6    1
 -5  SXX         1    4    1    1
 -5  SYY         1    4    2    2
 -5  SZZ         1    4    3    3
 -5  SXY         1    4    1    2
 -5  SYZ         1    4    2    3
 -5  SZX         1    4    3    1
 -1         2-1.78463E-01-1.76814E-01 7.74282E+01 1.00160E-01-3.89322E-01 3.92505E-01
 -1        10-1.78463E-01-1.76814E-01 7.74282E+01 1.00160E-01-3.89322E-01 3.92505E-01
 -1        13-1.78463E-01-1.76814E-01 7.74282E+01 1.00160E-01-3.89322E-01 3.92505E-01
 -1        34-1.78463E-01-1.76814E-01 7.74282E+01 1.00160E-01-3.89322E-01 3.92505E-01
 -1        95-1.78463E-01-1.76814E-01 7.74282E+01 1.00160E-01-3.89322E-01 3.92505E-01
 -1       105-1.78463E-01-1.76814E-01 7.74282E+01 1.00160E-01-3.89322E-01 3.92505E-01
 -1       134-1.78463E-01-1.76814E-01 7.74282E+01 1.00160E-01-3.89322E-01 3.92505E-01
 -1       222-1.78463E-01-1.76814E-01 7.74282E+01 1.00160E-01-3.89322E-01 3.92505E-01
 -3
    1PSTEP                        24        2664           1          
  100CL  108 6.13388E-05           8                     1    8           1
 -4  PE          1    1
 -5  PE          1    1    0    0
 -1         2 3.88060E-01
 -1        10 3.88060E-01
 -1        13 3.88060E-01
 -1        34 3.88060E-01
 -1        95 3.88060E-01
 -1       105 3.88060E-01
 -1       134 3.88060E-01
 -1       222 3.88060E-01
 -3
    1PSTEP                        25        2997           1          
  100CL  109 6.90061E-05           8                     1    9           1
 -4  DISP        4    1
 -5  D1          1    2    1    0
 -5  D2          1    2    2    0
 -5  D3          1    2    3    0
 -5  ALL         1    2    0    0    1ALL
 -1         2 0.00000E+00 0.00000E+00 0.00000E+00
 -1        10 9.39684E-02 0.00000E+00 0.00000E+00
 -1        13-2.78948E-03-9.37644E-02 0.00000E+00
 -1        34-7.91791E-03 8.52842E-03 5.15805E-01
 -1        95 9.11784E-02-9.37639E-02 0.00000E+00
 -1       105 8.60500E-02 8.52894E-03 5.15813E-01
 -1       134-1.07079E-02-8.52355E-02 5.15814E-01
 -1       222 8.32600E-02-8.52350E-02 5.15822E-01
 -3
    1PSTEP                        26        2997           1          
  100CL  109 6.90061E-05           8                     1    9           1
 -4  STRESS      6    1
 -5  SXX         1    4    1    1
 -5  SYY         1    4    2    2
 -5  SZZ         1    4    3    3
 -5  SXY         1    4    1    2
 -5  SYZ         1    4    2    3
 -5  SZX         1    4    3    1
 -1         2-2.60559E-02-2.54432E-02 8.32051E+01 1.78522E-02-8.80250E-02 9.02102E-02
 -1        10-2.60559E-02-2.54432E-02 8.32051E+01 1.78522E-02-8.80250E-02 9.02102E-02
 -1        13-2.60559E-02-2.54432E-02 8.32051E+01 1.78522E-02-8.80250E-02 9.02102E-02
 -1        34-2.60559E-02-2.54432E-02 8.32051E+01 1.78522E-02-8.80250E-02 9.02102E-02
 -1        95-2.60559E-02-2.54432E-02 8.32051E+01 1.78522E-02-8.80250E-02 9.02102E-02
 -1       105-2.60559E-02-2.54432E-02 8.32051E+01 1.78522E-02-8.80250E-02 9.02102E-02
 -1       134-2.60559E-02-2.54432E-02 8.32051E+01 1.78522E-02-8.80250E-02 9.02102E-02
 -1       222-2.60559E-02-2.54432E-02 8.32051E+01 1.78522E-02-8.80250E-02 9.02102E-02
 -3
    1PSTEP                        27        2997           1          
  100CL  109 6.90061E-05           8                     1    9           1
 -4  PE          1    1
 -5  PE          1    1    0    0
 -1         2 4.16156E-01
 -1        10 4.16156E-01
 -1        13 4.16156E-01
 -1        34 4.16156E-01
 -1        95 4.16156E-01
 -1       105 4.16156E-01
 -1       134 4.16156E-01
 -1       222 4.16156E-01
 -3
    1PSTEP                        28        3330           1          
  100CL  110 7.66735E-05           8                     1   10           1
 -4  DISP        4    1
 -5  D1          1    2    1    0
 -5  D2          1    2    2    0
 -5  D3          1    2    3    0
 -5  ALL         1    2    0    0    1ALL
 -1         2 0.00000E+00 0.00000E+00 0.00000E+00
 -1        10 9.90173E-02 0.00000E+00 0.00000E+00
 -1        13-2.76690E-03-9.88158E-02 0.00000E+00
 -1        34-7.88832E-03 8.48829E-03 5.54244E-01
 -1        95 9.62520E-02-9.88174E-02 0.00000E+00
 -1       105 9.11305E-02 8.48674E-03 5.54248E-01
 -1       134-1.06536E-02-9.03291E-02 5.54248E-01
 -1       222 8.83652E-02-9.03307E-02 5.54252E-01
 -3
    1PSTEP                        29        3330           1          
  100CL  110 7.66735E-05           8                     1   10           1
 -4  STRESS      6    1
 -5  SXX         1    4    1    1
 -5  SYY         1    4    2    2
 -5  SZZ         1    4    3    3
 -5  SXY         1    4    1    2
 -5  SYZ         1    4    2    3
 -5  SZX         1    4    3    1
 -1         2 1.11264E-01 1.11170E-01 8.83466E+01-5.33366E-02 1.86117E-01-1.85191E-01
 -1        10 1.11264E-01 1.11170E-01 8.83466E+01-5.33366E-02 1.86117E-01-1.85191E-01
 -1        13 1.11264E-01 1.11170E-01 8.83466E+01-5.33366E-02 1.86117E-01-1.85191E-01
 -1        34 1.11264E-01 1.11170E-01 8.83466E+01-5.33366E-02 1.86117E-01-1.85191E-01
 -1        95 1.11264E-01 1.11170E-01 8.83466E+01-5.33366E-02 1.86117E-01-1.85191E-01
 -1       105 1.11264E-01 1.11170E-01 8.83466E+01-5.33366E-02 1.86117E-01-1.85191E-01
 -1       134 1.11264E-01 1.11170E-01 8.83466E+01-5.33366E-02 1.86117E-01-1.85191E-01
 -1       222 1.11264E-01 1.11170E-01 8.83466E+01-5.33366E-02 1.86117E-01-1.85191E-01
 -3
    1PSTEP                        30        3330           1          
  100CL  110 7.66735E-05           8                     1   10           1
 -4  PE          1    1
 -5  PE          1    1    0    0
 -1         2 4.41183E-01
 -1        10 4.41183E-01
 -1        13 4.41183E-01
 -1        34 4.41183E-01
 -1        95 4.41183E-01
 -1       105 4.41183E-01
 -1       134 4.41183E-01
 -1       222 4.41183E-01
 -3
    1PSTEP                        31        3663           1          
  100CL  111 8.43408E-05           8                     1   11           1
 -4  DISP        4    1
 -5  D1          1    2    1    0
 -5  D2          1    2    2    0
 -5  D3          1    2    3    0
 -5  ALL         1    2    0    0    1ALL
 -1         2 0.00000E+00 0.00000E+00 0.00000E+00
 -1        10 1.07817E-01 0.00000E+00 0.00000E+00
 -1        13-2.73856E-03-1.07620E-01 0.00000E+00
 -1        34-8.14022E-03 8.71850E-03 6.24794E-01
 -1        95 1.05080E-01-1.07622E-01 0.00000E+00
 -1       105 9.96785E-02 8.71703E-03 6.24798E-01
 -1       134-1.08773E-02-9.89033E-02 6.24799E-01
 -1       222 9.69414E-02-9.89048E-02 6.24803E-01
 -3
    1PSTEP                        32        3663           1          
  100CL  111 8.43408E-05           8                     1   11           1
 -4  STRESS      6    1
 -5  SXX         1    4    1    1
 -5  SYY         1    4    2    2
 -5  SZZ         1    4    3    3
 -5  SXY         1    4    1    2
 -5  SYZ         1    4    2    3
 -5  SZX         1    4    3    1
 -1         2 1.00355E-01 9.98154E-02 9.72094E+01-5.12919E-02 2.15668E-01-2.16209E-01
 -1        10 1.00355E-01 9.98154E-02 9.72094E+01-5.12919E-02 2.15668E-01-2.16209E-01
 -1        13 1.00355E-01 9.98154E-02 9.72094E+01-5.12919E-02 2.15668E-01-2.16209E-01
 -1        34 1.00355E-01 9.98154E-02 9.72094E+01-5.12919E-02 2.15668E-01-2.16209E-01
 -1        95 1.00355E-01 9.98154E-02 9.72094E+01-5.12919E-02 2.15668E-01-2.16209E-01
 -1       105 1.00355E-01 9.98154E-02 9.72094E+01-5.12919E-02 2.15668E-01-2.16209E-01
 -1       134 1.00355E-01 9.98154E-02 9.72094E+01-5.12919E-02 2.15668E-01-2.16209E-01
 -1       222 1.00355E-01 9.98154E-02 9.72094E+01-5.12919E-02 2.15668E-01-2.16209E-01
 -3
    1PSTEP                        33        3663           1          
  100CL  111 8.43408E-05           8                     1   11           1
 -4  PE          1    1
 -5  PE          1    1    0    0
 -1         2 4.85554E-01
 -1        10 4.85554E-01
 -1        13 4.85554E-01
 -1        34 4.85554E-01
 -1        95 4.85554E-01
 -1       105 4.85554E-01
 -1       134 4.85554E-01
 -1       222 4.85554E-01
 -3
    1PSTEP                        34        3996           1          
  100CL  112 9.20082E-05           8                     1   12           1
 -4  DISP        4    1
 -5  D1          1    2    1    0
 -5  D2          1    2    2    0
 -5  D3          1    2    3    0
 -5  ALL         1    2    0    0    1ALL
 -1         2 0.00000E+00 0.00000E+00 0.00000E+00
 -1        10 1.19894E-01 0.00000E+00 0.00000E+00
 -1        13-2.67173E-03-1.19703E-01 0.00000E+00
 -1        34-8.17482E-03 8.71669E-03 7.29695E-01
 -1        95 1.17222E-01-1.19703E-01 0.00000E+00
 -1       105 1.11719E-01 8.71657E-03 7.29701E-01
 -1       134-1.08464E-02-1.10987E-01 7.29702E-01
 -1       222 1.09048E-01-1.10987E-01 7.29708E-01
 -3
    1PSTEP                        35        3996           1          
  100CL  112 9.20082E-05           8                     1   12           1
 -4  STRESS      6    1
 -5  SXX         1    4    1    1
 -5  SYY         1    4    2    2
 -5  SZZ         1    4    3    3
 -5  SXY         1    4    1    2
 -5  SYZ         1    4    2    3
 -5  SZX         1    4    3    1
 -1         2 2.41950E-03 1.97951E-03 1.09620E+02-4.62115E-03 5.93584E-02-6.13325E-02
 -1        10 2.41950E-03 1.97951E-03 1.09620E+02-4.62115E-03 5.93584E-02-6.13325E-02
 -1        13 2.41950E-03 1.97951E-03 1.09620E+02-4.62115E-03 5.93584E-02-6.13325E-02
 -1        34 2.41950E-03 1.97951E-03 1.09620E+02-4.62115E-03 5.93584E-02-6.13325E-02
 -1        95 2.41950E-03 1.97951E-03 1.09620E+02-4.62115E-03 5.93584E-02-6.13325E-02
 -1       105 2.41950E-03 1.97951E-03 1.09620E+02-4.62115E-03 5.93584E-02-6.13325E-02
 -1       134 2.41950E-03 1.97951E-03 1.09620E+02-4.62115E-03 5.93584E-02-6.13325E-02
 -1       222 2.41950E-03 1.97951E-03 1.09620E+02-4.62115E-03 5.93584E-02-6.13325E-02
 -3
    1PSTEP                        36        3996           1          
  100CL  112 9.20082E-05           8                     1   12           1
 -4  PE          1    1
 -5  PE          1    1    0    0
 -1         2 5.48089E-01
 -1        10 5.48089E-01
 -1        13 5.48089E-01
 -1        34 5.48089E-01
 -1        95 5.48089E-01
 -1       105 5.48089E-01
 -1       134 5.48089E-01
 -1       222 5.48089E-01
 -3
    1PSTEP                        37        4329           1          
  100CL  113 9.96755E-05           8                     1   13           1
 -4  DISP        4    1
 -5  D1          1    2    1    0
 -5  D2          1    2    2    0
 -5  D3          1    2    3    0
 -5  ALL         1    2    0    0    1ALL
 -1         2 0.00000E+00 0.00000E+00 0.00000E+00
 -1        10 1.31646E-01 0.00000E+00 0.00000E+00
 -1        13-2.57733E-03-1.31461E-01 0.00000E+00
 -1        34-7.53669E-03 8.04203E-03 8.41847E-01
 -1        95 1.29068E-01-1.31461E-01 0.00000E+00
 -1       105 1.24109E-01 8.04282E-03 8.41855E-01
 -1       134-1.01148E-02-1.23419E-01 8.41856E-01
 -1       222 1.21531E-01-1.23418E-01 8.41863E-01
 -3
    1PSTEP                        38        4329           1          
  100CL  113 9.96755E-05           8                     1   13           1
 -4  STRESS      6    1
 -5  SXX         1    4    1    1
 -5  SYY         1    4    2    2
 -5  SZZ         1    4    3    3
 -5  SXY         1    4    1    2
 -5  SYZ         1    4    2    3
 -5  SZX         1    4    3    1
 -1         2-6.69544E-02-6.68040E-02 1.22109E+02 3.40912E-02-1.51562E-01 1.50763E-01
 -1        10-6.69544E-02-6.68040E-02 1.22109E+02 3.40912E-02-1.51562E-01 1.50763E-01
 -1        13-6.69544E-02-6.68040E-02 1.22109E+02 3.40912E-02-1.51562E-01 1.50763E-01
 -1        34-6.69544E-02-6.68040E-02 1.22109E+02 3.40912E-02-1.51562E-01 1.50763E-01
 -1        95-6.69544E-02-6.68040E-02 1.22109E+02 3.40912E-02-1.51562E-01 1.50763E-01
 -1       105-6.69544E-02-6.68040E-02 1.22109E+02 3.40912E-02-1.51562E-01 1.50763E-01
 -1       134-6.69544E-02-6.68040E-02 1.22109E+02 3.40912E-02-1.51562E-01 1.50763E-01
 -1       222-6.69544E-02-6.68040E-02 1.22109E+02 3.40912E-02-1.51562E-01 1.50763E-01
 -3
    1PSTEP                        39        4329           1          
  100CL  113 9.96755E-05           8                     1   13           1
 -4  PE          1    1
 -5  PE          1    1    0    0
 -1         2 6.10882E-01
 -1        10 6.10882E-01
 -1        13 6.10882E-01