    1C
    1UModel: beam     Date: 10-Mar-1998                                 
    1UUSER                                                              
    1UDATE              29.april.2026                                   
    1UTIME              18:46:56                                        
    1UHOST                                                              
    1UPGM               CalculiX                                        
    1UVERSION           Version DEVELOPMENT                             
    1UCOMPILETIME       Tue Apr 28 17:44:25 CEST 2026                    
    1UDIR                                                               
    1UDBN                                                               
    1UMAT    1EL                                                        
    2C                             8                                     1
 -1         2 1.00000E+00 0.00000E+00 0.00000E+00
 -1        10 5.00000E-01 0.00000E+00 0.00000E+00
 -1        13 1.00000E+00 5.00000E-01 0.00000E+00
 -1        34 1.00000E+00 0.00000E+00 1.00000E+00
 -1        95 5.00000E-01 5.00000E-01 0.00000E+00
 -1       105 5.00000E-01 0.00000E+00 1.00000E+00
 -1       134 1.00000E+00 5.00000E-01 1.00000E+00
 -1       222 5.00000E-01 5.00000E-01 1.00000E+00
 -3
    3C                             1                                     1
 -1         1    1    0    1
 -2        10         2        13        95       105        34       134       222
 -3
    1PSTEP                         1         333           1          
  100CL  101 1.15072E-05           8                     1    1           1
 -4  DISP        4    1
 -5  D1          1    2    1    0
 -5  D2          1    2    2    0
 -5  D3          1    2    3    0
 -5  ALL         1    2    0    0    1ALL
 -1         2 0.00000E+00 0.00000E+00 0.00000E+00
 -1        10 1.27042E-02 0.00000E+00 0.00000E+00
 -1        13-2.54818E-03-1.23809E-02 0.00000E+00
 -1        34-4.49504E-03 5.46450E-03 5.21869E-02
 -1        95 1.01676E-02-1.23957E-02 0.00000E+00
 -1       105 8.22077E-03 5.44972E-03 5.21783E-02
 -1       134-7.03166E-03-6.92902E-03 5.21774E-02
 -1       222 5.68415E-03-6.94380E-03 5.21688E-02
 -3
    1PSTEP                         2         333           1          
  100CL  101 1.15072E-05           8                     1    1           1
 -4  STRESS      6    1
 -5  SXX         1    4    1    1
 -5  SYY         1    4    2    2
 -5  SZZ         1    4    3    3
 -5  SXY         1    4    1    2
 -5  SYZ         1    4    2    3
 -5  SZX         1    4    3    1
 -1         2 3.11008E-01 3.05937E-01 1.04953E+01-2.03925E-01 3.13376E-01-2.79819E-01
 -1        10 3.11008E-01 3.05937E-01 1.04953E+01-2.03925E-01 3.13376E-01-2.79819E-01
 -1        13 3.11008E-01 3.05937E-01 1.04953E+01-2.03925E-01 3.13376E-01-2.79819E-01
 -1        34 3.11008E-01 3.05937E-01 1.04953E+01-2.03925E-01 3.13376E-01-2.79819E-01
 -1        95 3.11008E-01 3.05937E-01 1.04953E+01-2.03925E-01 3.13376E-01-2.79819E-01
 -1       105 3.11008E-01 3.05937E-01 1.04953E+01-2.03925E-01 3.13376E-01-2.79819E-01
 -1       134 3.11008E-01 3.05937E-01 1.04953E+01-2.03925E-01 3.13376E-01-2.79819E-01
 -1       222 3.11008E-01 3.05937E-01 1.04953E+01-2.03925E-01 3.13376E-01-2.79819E-01
 -3
    1PSTEP                         3         333           1          
  100CL  101 1.15072E-05           8                     1    1           1
 -4  PE          1    1
 -5  PE          1    1    0    0
 -1         2 5.10946E-02
 -1        10 5.10946E-02
 -1        13 5.10946E-02
 -1        34 5.10946E-02
 -1        95 5.10946E-02
 -1       105 5.10946E-02
 -1       134 5.10946E-02
 -1       222 5.10946E-02
 -3
    1PSTEP                         4         666           1          
  100CL  102 2.30143E-05           8                     1    2           1
 -4  DISP        4    1
 -5  D1          1    2    1    0
 -5  D2          1    2    2    0
 -5  D3          1    2    3    0
 -5  ALL         1    2    0    0    1ALL
 -1         2 0.00000E+00 0.00000E+00 0.00000E+00
 -1        10 3.90391E-02 0.00000E+00 0.00000E+00
 -1        13-3.16814E-03-3.88062E-02 0.00000E+00
 -1        34-9.60152E-03 1.03881E-02 1.75963E-01
 -1        95 3.58635E-02-3.87987E-02 0.00000E+00
 -1       105 2.94301E-02 1.03955E-02 1.75976E-01
 -1       134-1.27772E-02-2.84104E-02 1.75978E-01
 -1       222 2.62545E-02-2.84030E-02 1.75991E-01
 -3
    1PSTEP                         5         666           1          
  100CL  102 2.30143E-05           8                     1    2           1
 -4  STRESS      6    1
 -5  SXX         1    4    1    1
 -5  SYY         1    4    2    2
 -5  SZZ         1    4    3    3
 -5  SXY         1    4    1    2
 -5  SYZ         1    4    2    3
 -5  SZX         1    4    3    1
 -1         2-3.17097E-01-3.24980E-01 3.21537E+01 1.37263E-01-2.50291E-01 2.09391E-01
 -1        10-3.17097E-01-3.24980E-01 3.21537E+01 1.37263E-01-2.50291E-01 2.09391E-01
 -1        13-3.17097E-01-3.24980E-01 3.21537E+01 1.37263E-01-2.50291E-01 2.09391E-01
 -1        34-3.17097E-01-3.24980E-01 3.21537E+01 1.37263E-01-2.50291E-01 2.09391E-01
 -1        95-3.17097E-01-3.24980E-01 3.21537E+01 1.37263E-01-2.50291E-01 2.09391E-01
 -1       105-3.17097E-01-3.24980E-01 3.21537E+01 1.37263E-01-2.50291E-01 2.09391E-01
 -1       134-3.17097E-01-3.24980E-01 3.21537E+01 1.37263E-01-2.50291E-01 2.09391E-01
 -1       222-3.17097E-01-3.24980E-01 3.21537E+01 1.37263E-01-2.50291E-01 2.09391E-01
 -3
    1PSTEP                         6         666           1          
  100CL  102 2.30143E-05           8                     1    2           1
 -4  PE          1    1
 -5  PE          1    1    0    0
 -1         2 1.62403E-01
 -1        10 1.62403E-01
 -1        13 1.62403E-01
 -1        34 1.62403E-01
 -1        95 1.62403E-01
 -1       105 1.62403E-01
 -1       134 1.62403E-01
 -1       222 1.62403E-01
 -3
    1PSTEP                         7         999           1          
  100CL  103 3.45215E-05           8                     1    3           1
 -4  DISP        4    1
 -5  D1          1    2    1    0
 -5  D2          1    2    2    0
 -5  D3          1    2    3    0
 -5  ALL         1    2    0    0    1ALL
 -1         2 0.00000E+00 0.00000E+00 0.00000E+00
 -1        10 4.63331E-02 0.00000E+00 0.00000E+00
 -1        13-2.98324E-03-4.61036E-02 0.00000E+00
 -1        34-8.40778E-03 9.15502E-03 2.14145E-01
 -1        95 4.33530E-02-4.61067E-02 0.00000E+00
 -1       105 3.79285E-02 9.15194E-03 2.14148E-01
 -1       134-1.13878E-02-3.69518E-02 2.14148E-01
 -1       222 3.49484E-02-3.69549E-02 2.14151E-01
 -3
    1PSTEP                         8         999           1          
  100CL  103 3.45215E-05           8                     1    3           1
 -4  STRESS      6    1
 -5  SXX         1    4    1    1
 -5  SYY         1    4    2    2
 -5  SZZ         1    4    3    3
 -5  SXY         1    4    1    2
 -5  SYZ         1    4    2    3
 -5  SZX         1    4    3    1
 -1         2 1.53142E-01 1.54465E-01 3.90202E+01-6.82109E-02 1.54663E-01-1.50761E-01
 -1        10 1.53142E-01 1.54465E-01 3.90202E+01-6.82109E-02 1.54663E-01-1.50761E-01
 -1        13 1.53142E-01 1.54465E-01 3.90202E+01-6.82109E-02 1.54663E-01-1.50761E-01
 -1        34 1.53142E-01 1.54465E-01 3.90202E+01-6.82109E-02 1.54663E-01-1.50761E-01
 -1        95 1.53142E-01 1.54465E-01 3.90202E+01-6.82109E-02 1.54663E-01-1.50761E-01
 -1       105 1.53142E-01 1.54465E-01 3.90202E+01-6.82109E-02 1.54663E-01-1.50761E-01
 -1       134 1.53142E-01 1.54465E-01 3.90202E+01-6.82109E-02 1.54663E-01-1.50761E-01
 -1       222 1.53142E-01 1.54465E-01 3.90202E+01-6.82109E-02 1.54663E-01-1.50761E-01
 -3
    1PSTEP                         9         999           1          
  100CL  103 3.45215E-05           8                     1    3           1
 -4  PE          1    1
 -5  PE          1    1    0    0
 -1         2 1.94342E-01
 -1        10 1.94342E-01
 -1        13 1.94342E-01
 -1        34 1.94342E-01
 -1        95 1.94342E-01
 -1       105 1.94342E-01
 -1       134 1.94342E-01
 -1       222 1.94342E-01
 -3
    1PSTEP                        10        1332           1          
  100CL  104 4.60286E-05           8                     1    4           1
 -4  DISP        4    1
 -5  D1          1    2    1    0
 -5  D2          1    2    2    0
 -5  D3          1    2    3    0
 -5  ALL         1    2    0    0    1ALL
 -1         2 0.00000E+00 0.00000E+00 0.00000E+00
 -1        10 6.13751E-02 0.00000E+00 0.00000E+00
 -1        13-3.10414E-03-6.11534E-02 0.00000E+00
 -1        34-9.69532E-03 1.04198E-02 2.98872E-01
 -1        95 5.82745E-02-6.11571E-02 0.00000E+00
 -1       105 5.16834E-02 1.04161E-02 2.98875E-01
 -1       134-1.27959E-02-5.07372E-02 2.98876E-01
 -1       222 4.85828E-02-5.07409E-02 2.98879E-01
 -3
    1PSTEP                        11        1332           1          
  100CL  104 4.60286E-05           8                     1    4           1
 -4  STRESS      6    1
 -5  SXX         1    4    1    1
 -5  SYY         1    4    2    2
 -5  SZZ         1    4    3    3
 -5  SXY         1    4    1    2
 -5  SYZ         1    4    2    3
 -5  SZX         1    4    3    1
 -1         2 1.42263E-01 1.39502E-01 5.24914E+01-8.02635E-02 2.65972E-01-2.69835E-01
 -1        10 1.42263E-01 1.39502E-01 5.24914E+01-8.02635E-02 2.65972E-01-2.69835E-01
 -1        13 1.42263E-01 1.39502E-01 5.24914E+01-8.02635E-02 2.65972E-01-2.69835E-01
 -1        34 1.42263E-01 1.39502E-01 5.24914E+01-8.02635E-02 2.65972E-01-2.69835E-01
 -1        95 1.42263E-01 1.39502E-01 5.24914E+01-8.02635E-02 2.65972E-01-2.69835E-01
 -1       105 1.42263E-01 1.39502E-01 5.24914E+01-8.02635E-02 2.65972E-01-2.69835E-01
 -1       134 1.42263E-01 1.39502E-01 5.24914E+01-8.02635E-02 2.65972E-01-2.69835E-01
 -1       222 1.42263E-01 1.39502E-01 5.24914E+01-8.02635E-02 2.65972E-01-2.69835E-01
 -3
    1PSTEP                        12        1332           1          
  100CL  104 4.60286E-05           8                     1    4           1
 -4  PE          1    1
 -5  PE          1    1    0    0
 -1         2 2.61774E-01
 -1        10 2.61774E-01
 -1        13 2.61774E-01
 -1        34 2.61774E-01
 -1        95 2.61774E-01
 -1       105 2.61774E-01
 -1       134 2.61774E-01
 -1       222 2.61774E-01
 -3
    1PSTEP                        13        1665           1          
  100CL  105 5.75358E-05           8                     1    5           1
 -4  DISP        4    1
 -5  D1          1    2    1    0
 -5  D2          1    2    2    0
 -5  D3          1    2    3    0
 -5  ALL         1    2    0    0    1ALL
 -1         2 0.00000E+00 0.00000E+00 0.00000E+00
 -1        10 8.34941E-02 0.00000E+00 0.00000E+00
 -1        13-2.92202E-03-8.32861E-02 0.00000E+00
 -1        34-9.20500E-03 9.82857E-03 4.40488E-01
 -1        95 8.05686E-02-8.32826E-02 0.00000E+00
 -1       105 7.42857E-02 9.83203E-03 4.40503E-01
 -1       134-1.21305E-02-7.34541E-02 4.40504E-01
 -1       222 7.13602E-02-7.34506E-02 4.40518E-01
 -3
    1PSTEP                        14        1665           1          
  100CL  105 5.75358E-05           8                     1    5           1
 -4  STRESS      6    1
 -5  SXX         1    4    1    1
 -5  SYY         1    4    2    2
 -5  SZZ         1    4    3    3
 -5  SXY         1    4    1    2
 -5  SYZ         1    4    2    3
 -5  SZX         1    4    3    1
 -1         2-1.78728E-01-1.78388E-01 7.28612E+01 9.34294E-02-3.06316E-01 3.03078E-01
 -1        10-1.78728E-01-1.78388E-01 7.28612E+01 9.34294E-02-3.06316E-01 3.03078E-01
 -1        13-1.78728E-01-1.78388E-01 7.28612E+01 9.34294E-02-3.06316E-01 3.03078E-01
 -1        34-1.78728E-01-1.78388E-01 7.28612E+01 9.34294E-02-3.06316E-01 3.03078E-01
 -1        95-1.78728E-01-1.78388E-01 7.28612E+01 9.34294E-02-3.06316E-01 3.03078E-01
 -1       105-1.78728E-01-1.78388E-01 7.28612E+01 9.34294E-02-3.06316E-01 3.03078E-01
 -1       134-1.78728E-01-1.78388E-01 7.28612E+01 9.34294E-02-3.06316E-01 3.03078E-01
 -1       222-1.78728E-01-1.78388E-01 7.28612E+01 9.34294E-02-3.06316E-01 3.03078E-01
 -3
    1PSTEP                        15        1665           1          
  100CL  105 5.75358E-05           8                     1    5           1
 -4  PE          1    1
 -5  PE          1    1    0    0
 -1         2 3.65219E-01
 -1        10 3.65219E-01
 -1        13 3.65219E-01
 -1        34 3.65219E-01
 -1        95 3.65219E-01
 -1       105 3.65219E-01
 -1       134 3.65219E-01
 -1       222 3.65219E-01
 -3
    1PSTEP                        16        1998           1          
  100CL  106 6.90429E-05           8                     1    6           1
 -4  DISP        4    1
 -5  D1          1    2    1    0
 -5  D2          1    2    2    0
 -5  D3          1    2    3    0
 -5  ALL         1    2    0    0    1ALL
 -1         2 0.00000E+00 0.00000E+00 0.00000E+00
 -1        10 9.39896E-02 0.00000E+00 0.00000E+00
 -1        13-2.78540E-03-9.37864E-02 0.00000E+00
 -1        34-7.90924E-03 8.51799E-03 5.15966E-01
 -1        95 9.12037E-02-9.37858E-02 0.00000E+00
 -1       105 8.60798E-02 8.51852E-03 5.15974E-01
 -1       134-1.06952E-02-8.52678E-02 5.15975E-01
 -1       222 8.32939E-02-8.52673E-02 5.15983E-01
 -3
    1PSTEP                        17        1998           1          
  100CL  106 6.90429E-05           8                     1    6           1
 -4  STRESS      6    1
 -5  SXX         1    4    1    1
 -5  SYY         1    4    2    2
 -5  SZZ         1    4    3    3
 -5  SXY         1    4    1    2
 -5  SYZ         1    4    2    3
 -5  SZX         1    4    3    1
 -1         2-2.46157E-02-2.40124E-02 8.32277E+01 1.73525E-02-8.60633E-02 8.82166E-02
 -1        10-2.46157E-02-2.40124E-02 8.32277E+01 1.73525E-02-8.60633E-02 8.82166E-02
 -1        13-2.46157E-02-2.40124E-02 8.32277E+01 1.73525E-02-8.60633E-02 8.82166E-02
 -1        34-2.46157E-02-2.40124E-02 8.32277E+01 1.73525E-02-8.60633E-02 8.82166E-02
 -1        95-2.46157E-02-2.40124E-02 8.32277E+01 1.73525E-02-8.60633E-02 8.82166E-02
 -1       105-2.46157E-02-2.40124E-02 8.32277E+01 1.73525E-02-8.60633E-02 8.82166E-02
 -1       134-2.46157E-02-2.40124E-02 8.32277E+01 1.73525E-02-8.60633E-02 8.82166E-02
 -1       222-2.46157E-02-2.40124E-02 8.32277E+01 1.73525E-02-8.60633E-02 8.82166E-02
 -3
    1PSTEP                        18        1998           1          
  100CL  106 6.90429E-05           8                     1    6           1
 -4  PE          1    1
 -5  PE          1    1    0    0
 -1         2 4.16262E-01
 -1        10 4.16262E-01
 -1        13 4.16262E-01
 -1        34 4.16262E-01
 -1        95 4.16262E-01
 -1       105 4.16262E-01
 -1       134 4.16262E-01
 -1       222 4.16262E-01
 -3
    1PSTEP                        19        2331           1          
  100CL  107 8.05501E-05           8                     1    7           1
 -4  DISP        4    1
 -5  D1          1    2    1    0
 -5  D2          1    2    2    0
 -5  D3          1    2    3    0
 -5  ALL         1    2    0    0    1ALL
 -1         2 0.00000E+00 0.00000E+00 0.00000E+00
 -1        10 1.02899E-01 0.00000E+00 0.00000E+00
 -1        13-2.75191E-03-1.02700E-01 0.00000E+00
 -1        34-7.99138E-03 8.58065E-03 5.84791E-01
 -1        95 1.00149E-01-1.02702E-01 0.00000E+00
 -1       105 9.49094E-02 8.57878E-03 5.84794E-01
 -1       134-1.07414E-02-9.41214E-02 5.84795E-01
 -1       222 9.21594E-02-9.41233E-02 5.84799E-01
 -3
    1PSTEP                        20        2331           1          
  100CL  107 8.05501E-05           8                     1    7           1
 -4  STRESS      6    1
 -5  SXX         1    4    1    1
 -5  SYY         1    4    2    2
 -5  SZZ         1    4    3    3
 -5  SXY         1    4    1    2
 -5  SYZ         1    4    2    3
 -5  SZX         1    4    3    1
 -1         2 1.26843E-01 1.26518E-01 9.22522E+01-6.10951E-02 2.29206E-01-2.28791E-01
 -1        10 1.26843E-01 1.26518E-01 9.22522E+01-6.10951E-02 2.29206E-01-2.28791E-01
 -1        13 1.26843E-01 1.26518E-01 9.22522E+01-6.10951E-02 2.29206E-01-2.28791E-01
 -1        34 1.26843E-01 1.26518E-01 9.22522E+01-6.10951E-02 2.29206E-01-2.28791E-01
 -1        95 1.26843E-01 1.26518E-01 9.22522E+01-6.10951E-02 2.29206E-01-2.28791E-01
 -1       105 1.26843E-01 1.26518E-01 9.22522E+01-6.10951E-02 2.29206E-01-2.28791E-01
 -1       134 1.26843E-01 1.26518E-01 9.22522E+01-6.10951E-02 2.29206E-01-2.28791E-01
 -1       222 1.26843E-01 1.26518E-01 9.22522E+01-6.10951E-02 2.29206E-01-2.28791E-01
 -3
    1PSTEP                        21        2331           1          
  100CL  107 8.05501E-05           8                     1    7           1
 -4  PE          1    1
 -5  PE          1    1    0    0
 -1         2 4.60637E-01
 -1        10 4.60637E-01
 -1        13 4.60637E-01
 -1        34 4.60637E-01
 -1        95 4.60637E-01
 -1       105 4.60637E-01
 -1       134 4.60637E-01
 -1       222 4.60637E-01
 -3
    1PSTEP                        22        2664           1          
  100CL  108 9.20572E-05           8                     1    8           1
 -4  DISP        4    1
 -5  D1          1    2    1    0
 -5  D2          1    2    2    0
 -5  D3          1    2    3    0
 -5  ALL         1    2    0    0    1ALL
 -1         2 0.00000E+00 0.00000E+00 0.00000E+00
 -1        10 1.19973E-01 0.00000E+00 0.00000E+00
 -1        13-2.66751E-03-1.19783E-01 0.00000E+00
 -1        34-8.16593E-03 8.70591E-03 7.30421E-01
 -1        95 1.17306E-01-1.19784E-01 0.00000E+00
 -1       105 1.11807E-01 8.70580E-03 7.30428E-01
 -1       134-1.08333E-02-1.11078E-01 7.30428E-01
 -1       222 1.09140E-01-1.11078E-01 7.30435E-01
 -3
    1PSTEP                        23        2664           1          
  100CL  108 9.20572E-05           8                     1    8           1
 -4  STRESS      6    1
 -5  SXX         1    4    1    1
 -5  SYY         1    4    2    2
 -5  SZZ         1    4    3    3
 -5  SXY         1    4    1    2
 -5  SYZ         1    4    2    3
 -5  SZX         1    4    3    1
 -1         2 7.02781E-03 6.59036E-03 1.09708E+02-4.28629E-03 5.78862E-02-5.98710E-02
 -1        10 7.02781E-03 6.59036E-03 1.09708E+02-4.28629E-03 5.78862E-02-5.98710E-02
 -1        13 7.02781E-03 6.59036E-03 1.09708E+02-4.28629E-03 5.78862E-02-5.98710E-02
 -1        34 7.02781E-03 6.59036E-03 1.09708E+02-4.28629E-03 5.78862E-02-5.98710E-02
 -1        95 7.02781E-03 6.59036E-03 1.09708E+02-4.28629E-03 5.78862E-02-5.98710E-02
 -1       105 7.02781E-03 6.59036E-03 1.09708E+02-4.28629E-03 5.78862E-02-5.98710E-02
 -1       134 7.02781E-03 6.59036E-03 1.09708E+02-4.28629E-03 5.78862E-02-5.98710E-02
 -1       222 7.02781E-03 6.59036E-03 1.09708E+02-4.28629E-03 5.78862E-02-5.98710E-02
 -3
    1PSTEP                        24        2664           1          
  100CL  108 9.20572E-05           8                     1    8           1
 -4  PE          1    1
 -5  PE          1    1    0    0
 -1         2 5.48508E-01
 -1        10 5.48508E-01
 -1        13 5.48508E-01
 -1        34 5.48508E-01
 -1        95 5.48508E-01
 -1       105 5.48508E-01
 -1       134 5.48508E-01
 -1       222 5.48508E-01
 -3
    1PSTEP                        25        2997           1          
  100CL  109 1.03564E-04           8                     1    9           1
 -4  DISP        4    1
 -5  D1          1    2    1    0
 -5  D2          1    2    2    0
 -5  D3          1    2    3    0
 -5  ALL         1    2    0    0    1ALL
 -1         2 0.00000E+00 0.00000E+00 0.00000E+00
 -1        10 1.36496E-01 0.00000E+00 0.00000E+00
 -1        13-2.52664E-03-1.36315E-01 0.00000E+00
 -1        34-7.01883E-03 7.50785E-03 8.91333E-01
 -1        95 1.33968E-01-1.36313E-01 0.00000E+00
 -1       105 1.29476E-01 7.50947E-03 8.91342E-01
 -1       134-9.54710E-03-1.28805E-01 8.91343E-01
 -1       222 1.26947E-01-1.28804E-01 8.91352E-01
 -3
    1PSTEP                        26        2997           1          
  100CL  109 1.03564E-04           8                     1    9           1
 -4  STRESS      6    1
 -5  SXX         1    4    1    1
 -5  SYY         1    4    2    2
 -5  SZZ         1    4    3    3
 -5  SXY         1    4    1    2
 -5  SYZ         1    4    2    3
 -5  SZX         1    4    3    1
 -1         2-1.41279E-01-1.40961E-01 1.27333E+02 7.15137E-02-3.36111E-01 3.34897E-01
 -1        10-1.41279E-01-1.40961E-01 1.27333E+02 7.15137E-02-3.36111E-01 3.34897E-01
 -1        13-1.41279E-01-1.40961E-01 1.27333E+02 7.15137E-02-3.36111E-01 3.34897E-01
 -1        34-1.41279E-01-1.40961E-01 1.27333E+02 7.15137E-02-3.36111E-01 3.34897E-01
 -1        95-1.41279E-01-1.40961E-01 1.27333E+02 7.15137E-02-3.36111E-01 3.34897E-01
 -1       105-1.41279E-01-1.40961E-01 1.27333E+02 7.15137E-02-3.36111E-01 3.34897E-01
 -1       134-1.41279E-01-1.40961E-01 1.27333E+02 7.15137E-02-3.36111E-01 3.34897E-01
 -1       222-1.41279E-01-1.40961E-01 1.27333E+02 7.15137E-02-3.36111E-01 3.34897E-01
 -3
    1PSTEP                        27        2997           1          
  100CL  109 1.03564E-04           8                     1    9           1
 -4  PE          1    1
 -5  PE          1    1    0    0
 -1         2 6.37383E-01
 -1        10 6.37383E-01
 -1        13 6.37383E-01
 -1        34 6.37383E-01
 -1        95 6.37383E-01
 -1       105 6.37383E-01
 -1       134 6.37383E-01
 -1       222 6.37383E-01
 -3
    1PSTEP                        28        3330           1          
  100CL  110 1.15072E-04           8                     1   10           1
 -4  DISP        4    1
 -5  D1          1    2    1    0
 -5  D2          1    2    2    0
 -5  D3          1    2    3    0
 -5  ALL         1    2    0    0    1ALL
 -1         2 0.00000E+00 0.00000E+00 0.00000E+00
 -1        10 1.41023E-01 0.00000E+00 0.00000E+00
 -1        13-2.47080E-03-1.40844E-01 0.00000E+00
 -1        34-6.10352E-03 6.57991E-03 9.39331E-01
 -1        95 1.38549E-01-1.40840E-01 0.00000E+00
 -1       105 1.34917E-01 6.58439E-03 9.39343E-01
 -1       134-8.57679E-03-1.34261E-01 9.39343E-01
 -1       222 1.32443E-01-1.34257E-01 9.39355E-01
 -3
    1PSTEP                        29        3330           1          
  100CL  110 1.15072E-04           8                     1   10           1
 -4  STRESS      6    1
 -5  SXX         1    4    1    1
 -5  SYY         1    4    2    2
 -5  SZZ         1    4    3    3
 -5  SXY         1    4    1    2
 -5  SYZ         1    4    2    3
 -5  SZX         1    4    3    1
 -1         2-2.14772E-01-1.87722E-01 1.32045E+02 1.89548E-01-9.99053E-01 9.95809E-01
 -1        10-2.14772E-01-1.87722E-01 1.32045E+02 1.89548E-01-9.99053E-01 9.95809E-01
 -1        13-2.14772E-01-1.87722E-01 1.32045E+02 1.89548E-01-9.99053E-01 9.95809E-01
 -1        34-2.14772E-01-1.87722E-01 1.32045E+02 1.89548E-01-9.99053E-01 9.95809E-01
 -1        95-2.14772E-01-1.87722E-01 1.32045E+02 1.89548E-01-9.99053E-01 9.95809E-01
 -1       105-2.14772E-01-1.87722E-01 1.32045E+02 1.89548E-01-9.99053E-01 9.95809E-01
 -1       134-2.14772E-01-1.87722E-01 1.32045E+02 1.89548E-01-9.99053E-01 9.95809E-01
 -1       222-2.14772E-01-1.87722E-01 1.32045E+02 1.89548E-01-9.99053E-01 9.95809E-01
 -3
    1PSTEP                        30        3330           1          
  100CL  110 1.15072E-04           8                     1   10           1
 -4  PE          1    1
 -5  PE          1    1    0    0
 -1         2 6.62435E-01
 -1        10 6.62435E-01
 -1        13 6.62435E-01
 -1        34 6.62435E-01
 -1        95 6.62435E-01
 -1       105 6.62435E-01
 -1       134 6.62435E-01
 -1       222 6.62435E-01
 -3
    1PSTEP                        31        3663           1          
  100CL  111 1.26579E-04           8                     1   11           1
 -4  DISP        4    1
 -5  D1          1    2    1    0
 -5  D2          1    2    2    0
 -5  D3          1    2    3    0
 -5  ALL         1    2    0    0    1ALL
 -1         2 0.00000E+00 0.00000E+00 0.00000E+00
 -1        10 1.41021E-01 0.00000E+00 0.00000E+00
 -1        13-2.47396E-03-1.40842E-01 0.00000E+00
 -1        34-6.14557E-03 6.64248E-03 9.39327E-01
 -1        95 1.38546E-01-1.40839E-01 0.00000E+00
 -1       105 1.34874E-01 6.64462E-03 9.39331E-01
 -1       134-8.62058E-03-1.34198E-01 9.39327E-01
 -1       222 1.32399E-01-1.34196E-01 9.39330E-01
 -3
    1PSTEP                        32        3663           1          
  100CL  111 1.26579E-04           8                     1   11           1
 -4  STRESS      6    1
 -5  SXX         1    4    1    1
 -5  SYY         1    4    2    2
 -5  SZZ         1    4    3    3
 -5  SXY         1    4    1    2
 -5  SYZ         1    4    2    3
 -5  SZX         1    4    3    1
 -1         2-9.14606E-02-1.21433E-02 1.29034E+02 7.28189E-02 4.49142E-01 3.38646E-02
 -1        10-9.14606E-02-1.21433E-02 1.29034E+02 7.28189E-02 4.49142E-01 3.38646E-02
 -1        13-9.14606E-02-1.21433E-02 1.29034E+02 7.28189E-02 4.49142E-01 3.38646E-02
 -1        34-9.14606E-02-1.21433E-02 1.29034E+02 7.28189E-02 4.49142E-01 3.38646E-02
 -1        95-9.14606E-02-1.21433E-02 1.29034E+02 7.28189E-02 4.49142E-01 3.38646E-02
 -1       105-9.14606E-02-1.21433E-02 1.29034E+02 7.28189E-02 4.49142E-01 3.38646E-02
 -1       134-9.14606E-02-1.21433E-02 1.29034E+02 7.28189E-02 4.49142E-01 3.38646E-02
 -1       222-9.14606E-02-1.21433E-02 1.29034E+02 7.28189E-02 4.49142E-01 3.38646E-02
 -3
    1PSTEP                        33        3663           1          
  100CL  111 1.26579E-04           8                     1   11           1
 -4  PE          1    1
 -5  PE          1    1    0    0
 -1         2 6.62435E-01
 -1        10 6.62435E-01
 -1        13 6.62435E-01
 -1        34 6.62435E-01
 -1        95 6.62435E-01
 -1       105 6.62435E-01
 -1       134 6.62435E-01
 -1       222 6.62435E-01
 -3
    1PSTEP                        34        3996           1          
  100CL  112 1.38086E-04           8                     1   12           1
 -4  DISP        4    1
 -5  D1          1    2    1    0
 -5  D2          1    2    2    0
 -5  D3          1    2    3    0
 -5  ALL         1    2    0    0    1ALL
 -1         2 0.00000E+00 0.00000E+00 0.00000E+00
 -1        10 1.41016E-01 0.00000E+00 0.00000E+00
 -1        13-2.47968E-03-1.40837E-01 0.00000E+00
 -1        34-6.19153E-03 6.66130E-03 9.39287E-01
 -1        95 1.38539E-01-1.40839E-01 0.00000E+00
 -1       105 1.34827E-01 6.65955E-03 9.39282E-01
 -1       134-8.66926E-03-1.34178E-01 9.39283E-01
 -1       222 1.32349E-01-1.34179E-01 9.39277E-01
 -3
    1PSTEP                        35        3996           1          
  100CL  112 1.38086E-04           8                     1   12           1
 -4  STRESS      6    1
 -5  SXX         1    4    1    1
 -5  SYY         1    4    2    2
 -5  SZZ         1    4    3    3
 -5  SXY         1    4    1    2
 -5  SYZ         1    4    2    3
 -5  SZX         1    4    3    1
 -1         2 1.21155E-01 7.97228E-02 1.18987E+02-1.16676E-01 8.11984E-01-1.01867E+00
 -1        10 1.21155E-01 7.97228E-02 1.18987E+02-1.16676E-01 8.11984E-01-1.01867E+00
 -1        13 1.21155E-01 7.97228E-02 1.18987E+02-1.16676E-01 8.11984E-01-1.01867E+00
 -1        34 1.21155E-01 7.97228E-02 1.18987E+02-1.16676E-01 8.11984E-01-1.01867E+00
 -1        95 1.21155E-01 7.97228E-02 1.18987E+02-1.16676E-01 8.11984E-01-1.01867E+00
 -1       105 1.21155E-01 7.97228E-02 1.18987E+02-1.16676E-01 8.11984E-01-1.01867E+00
 -1       134 1.21155E-01 7.97228E-02 1.18987E+02-1.16676E-01 8.11984E-01-1.01867E+00
 -1       222 1.21155E-01 7.97228E-02 1.18987E+02-1.16676E-01 8.11984E-01-1.01867E+00
 -3
    1PSTEP                        36        3996           1          
  100CL  112 1.38086E-04           8                     1   12           1
 -4  PE          1    1
 -5  PE          1    1    0    0
 -1         2 6.62435E-01
 -1        10 6.62435E-01
 -1        13 6.62435E-01
 -1        34 6.62435E-01
 -1        95 6.62435E-01
 -1       105 6.62435E-01
 -1       134 6.62435E-01
 -1       222 6.62435E-01
 -3
    1PSTEP                        37        4329           1          
  100CL  113 1.49593E-04           8                     1   13           1
 -4  DISP        4    1
 -5  D1          1    2    1    0
 -5  D2          1    2    2    0
 -5  D3          1    2    3    0
 -5  ALL         1    2    0    0    1ALL
 -1         2 0.00000E+00 0.00000E+00 0.00000E+00
 -1        10 1.41015E-01 0.00000E+00 0.00000E+00
 -1        13-2.47934E-03-1.40836E-01 0.00000E+00
 -1        34-6.15339E-03 6.58463E-03 9.39234E-01
 -1        95 1.38537E-01-1.40838E-01 0.00000E+00
 -1       105 1.34863E-01 6.58215E-03 9.39236E-01
 -1       134-8.63190E-03-1.34252E-01 9.39246E-01
 -1       222 1.32384E-01-1.34254E-01 9.39248E-01
 -3
    1PSTEP                        38        4329           1          
  100CL  113 1.49593E-04           8                     1   13           1
 -4  STRESS      6    1
 -5  SXX         1    4    1    1
 -5  SYY         1    4    2    2
 -5  SZZ         1    4    3    3
 -5  SXY         1    4    1    2
 -5  SYZ         1    4    2    3
 -5  SZX         1    4    3    1
 -1         2 9.49540E-02-3.63069E-02 1.09789E+02-9.42507E-02-1.03123E+00-1.26627E-01
 -1        10 9.49540E-02-3.63069E-02 1.09789E+02-9.42507E-02-1.03123E+00-1.26627E-01
 -1        13 9.49540E-02-3.63069E-02 1.09789E+02-9.42507E-02-1.03123E+00-1.26627E-01
 -1        34 9.49540E-02-3.63069E-02 1.09789E+02-9.42507E-02-1.03123E+00-1.26627E-01
 -1        95 9.49540E-02-3.63069E-02 1.09789E+02-9.42507E-02-1.03123E+00-1.26627E-01
 -1       105 9.49540E-02-3.63069E-02 1.09789E+02-9.42507E-02-1.03123E+00-1.26627E-01
 -1       134 9.49540E-02-3.63069E-02 1.09789E+02-9.42507E-02-1.03123E+00-1.26627E-01
 -1       222 9.49540E-02-3.63069E-02 1.09789E+02-9.42507E-02-1.03123E+00-1.26627E-01
 -3
    1PSTEP                        39        4329           1          
  100CL  113 1.49593E-04           8                     1   13           1
 -4  PE          1    1
 -5  PE          1    1    0    0
 -1         2 6.62435E-01
 -1        10 6.62435E-01
 -1        13 6.62435E-01