    1C
    1UModel: beam     Date: 10-Mar-1998                                 
    1UUSER                                                              
    1UDATE              11.november.2023                                
    1UTIME              13:37:41                                        
    1UHOST                                                              
    1UPGM               CalculiX                                        
    1UVERSION           Version DEVELOPMENT                             
    1UCOMPILETIME       Sat Nov 11 13:24:03 CET 2023                    
    1UDIR                                                               
    1UDBN                                                               
    1UMAT    1EL                                                        
    2C                             8                                     1
 -1         2 1.00000E+00 0.00000E+00 0.00000E+00
 -1        10 5.00000E-01 0.00000E+00 0.00000E+00
 -1        13 1.00000E+00 5.00000E-01 0.00000E+00
 -1        34 1.00000E+00 0.00000E+00 1.00000E+00
 -1        95 5.00000E-01 5.00000E-01 0.00000E+00
 -1       105 5.00000E-01 0.00000E+00 1.00000E+00
 -1       134 1.00000E+00 5.00000E-01 1.00000E+00
 -1       222 5.00000E-01 5.00000E-01 1.00000E+00
 -3
    3C                             1                                     1
 -1         1    1    0    1
 -2        10         2        13        95       105        34       134       222
 -3
    1PSTEP                         1           1           1          
  100CL  101 1.00000E-05           8                     0    1           1
 -4  DISP        4    1
 -5  D1          1    2    1    0
 -5  D2          1    2    2    0
 -5  D3          1    2    3    0
 -5  ALL         1    2    0    0    1ALL
 -1         2 0.00000E+00 0.00000E+00 0.00000E+00
 -1        10 1.23482E-02 0.00000E+00 0.00000E+00
 -1        13 8.13773E-18-1.23482E-02 0.00000E+00
 -1        34 7.36116E-18 1.68678E-17 5.12975E-02
 -1        95 1.23482E-02-1.23482E-02 0.00000E+00
 -1       105 1.23482E-02 1.61521E-17 5.12975E-02
 -1       134 1.44960E-17-1.23482E-02 5.12975E-02
 -1       222 1.23482E-02-1.23482E-02 5.12975E-02
 -3
    1PSTEP                         2           1           1          
  100CL  101 1.00000E-05           8                     0    1           1
 -4  STRESS      6    1
 -5  SXX         1    4    1    1
 -5  SYY         1    4    2    2
 -5  SZZ         1    4    3    3
 -5  SXY         1    4    1    2
 -5  SYZ         1    4    2    3
 -5  SZX         1    4    3    1
 -1         2-3.56534E-04-3.56534E-04 9.99995E+00-3.46769E-13 2.57609E-13 1.92261E-13
 -1        10-3.56534E-04-3.56534E-04 9.99995E+00-3.46769E-13 2.57609E-13 1.92261E-13
 -1        13-3.56534E-04-3.56534E-04 9.99995E+00-3.46769E-13 2.57609E-13 1.92261E-13
 -1        34-3.56534E-04-3.56534E-04 9.99995E+00-3.46769E-13 2.57609E-13 1.92261E-13
 -1        95-3.56534E-04-3.56534E-04 9.99995E+00-3.46769E-13 2.57609E-13 1.92261E-13
 -1       105-3.56534E-04-3.56534E-04 9.99995E+00-3.46769E-13 2.57609E-13 1.92261E-13
 -1       134-3.56534E-04-3.56534E-04 9.99995E+00-3.46769E-13 2.57609E-13 1.92261E-13
 -1       222-3.56534E-04-3.56534E-04 9.99995E+00-3.46769E-13 2.57609E-13 1.92261E-13
 -3
    1PSTEP                         3           1           1          
  100CL  101 1.00000E-05           8                     0    1           1
 -4  PE          1    1
 -5  PE          1    1    0    0
 -1         2 5.00016E-02
 -1        10 5.00016E-02
 -1        13 5.00016E-02
 -1        34 5.00016E-02
 -1        95 5.00016E-02
 -1       105 5.00016E-02
 -1       134 5.00016E-02
 -1       222 5.00016E-02
 -3
    1PSTEP                         4           2           1          
  100CL  102 2.00000E-05           8                     0    2           1
 -4  DISP        4    1
 -5  D1          1    2    1    0
 -5  D2          1    2    2    0
 -5  D3          1    2    3    0
 -5  ALL         1    2    0    0    1ALL
 -1         2 0.00000E+00 0.00000E+00 0.00000E+00
 -1        10 2.43873E-02 0.00000E+00 0.00000E+00
 -1        13 8.94712E-18-2.43873E-02 0.00000E+00
 -1        34 4.36261E-19 6.67294E-18 1.05207E-01
 -1        95 2.43873E-02-2.43873E-02 0.00000E+00
 -1       105 2.43873E-02 6.93380E-18 1.05207E-01
 -1       134 1.05335E-17-2.43873E-02 1.05207E-01
 -1       222 2.43873E-02-2.43873E-02 1.05207E-01
 -3
    1PSTEP                         5           2           1          
  100CL  102 2.00000E-05           8                     0    2           1
 -4  STRESS      6    1
 -5  SXX         1    4    1    1
 -5  SYY         1    4    2    2
 -5  SZZ         1    4    3    3
 -5  SXY         1    4    1    2
 -5  SYZ         1    4    2    3
 -5  SZX         1    4    3    1
 -1         2-2.85425E-03-2.85425E-03 1.99943E+01 1.87551E-12 7.11295E-14-1.41636E-13
 -1        10-2.85425E-03-2.85425E-03 1.99943E+01 1.87551E-12 7.11295E-14-1.41636E-13
 -1        13-2.85425E-03-2.85425E-03 1.99943E+01 1.87551E-12 7.11295E-14-1.41636E-13
 -1        34-2.85425E-03-2.85425E-03 1.99943E+01 1.87551E-12 7.11295E-14-1.41636E-13
 -1        95-2.85425E-03-2.85425E-03 1.99943E+01 1.87551E-12 7.11295E-14-1.41636E-13
 -1       105-2.85425E-03-2.85425E-03 1.99943E+01 1.87551E-12 7.11295E-14-1.41636E-13
 -1       134-2.85425E-03-2.85425E-03 1.99943E+01 1.87551E-12 7.11295E-14-1.41636E-13
 -1       222-2.85425E-03-2.85425E-03 1.99943E+01 1.87551E-12 7.11295E-14-1.41636E-13
 -3
    1PSTEP                         6           2           1          
  100CL  102 2.00000E-05           8                     0    2           1
 -4  PE          1    1
 -5  PE          1    1    0    0
 -1         2 9.99858E-02
 -1        10 9.99858E-02
 -1        13 9.99858E-02
 -1        34 9.99858E-02
 -1        95 9.99858E-02
 -1       105 9.99858E-02
 -1       134 9.99858E-02
 -1       222 9.99858E-02
 -3
    1PSTEP                         7           3           1          
  100CL  103 3.00000E-05           8                     0    3           1
 -4  DISP        4    1
 -5  D1          1    2    1    0
 -5  D2          1    2    2    0
 -5  D3          1    2    3    0
 -5  ALL         1    2    0    0    1ALL
 -1         2 0.00000E+00 0.00000E+00 0.00000E+00
 -1        10 3.61278E-02 0.00000E+00 0.00000E+00
 -1        13 9.54991E-18-3.61278E-02 0.00000E+00
 -1        34-1.34206E-18 1.69393E-17 1.61875E-01
 -1        95 3.61278E-02-3.61278E-02 0.00000E+00
 -1       105 3.61278E-02 1.75491E-17 1.61875E-01
 -1       134 8.12433E-18-3.61278E-02 1.61875E-01
 -1       222 3.61278E-02-3.61278E-02 1.61875E-01
 -3
    1PSTEP                         8           3           1          
  100CL  103 3.00000E-05           8                     0    3           1
 -4  STRESS      6    1
 -5  SXX         1    4    1    1
 -5  SYY         1    4    2    2
 -5  SZZ         1    4    3    3
 -5  SXY         1    4    1    2
 -5  SYZ         1    4    2    3
 -5  SZX         1    4    3    1
 -1         2-8.31287E-03-8.31287E-03 2.99845E+01-1.12556E-12 2.52315E-13 1.19846E-14
 -1        10-8.31287E-03-8.31287E-03 2.99845E+01-1.12556E-12 2.52315E-13 1.19846E-14
 -1        13-8.31287E-03-8.31287E-03 2.99845E+01-1.12556E-12 2.52315E-13 1.19846E-14
 -1        34-8.31287E-03-8.31287E-03 2.99845E+01-1.12556E-12 2.52315E-13 1.19846E-14
 -1        95-8.31287E-03-8.31287E-03 2.99845E+01-1.12556E-12 2.52315E-13 1.19846E-14
 -1       105-8.31287E-03-8.31287E-03 2.99845E+01-1.12556E-12 2.52315E-13 1.19846E-14
 -1       134-8.31287E-03-8.31287E-03 2.99845E+01-1.12556E-12 2.52315E-13 1.19846E-14
 -1       222-8.31287E-03-8.31287E-03 2.99845E+01-1.12556E-12 2.52315E-13 1.19846E-14
 -3
    1PSTEP                         9           3           1          
  100CL  103 3.00000E-05           8                     0    3           1
 -4  PE          1    1
 -5  PE          1    1    0    0
 -1         2 1.49964E-01
 -1        10 1.49964E-01
 -1        13 1.49964E-01
 -1        34 1.49964E-01
 -1        95 1.49964E-01
 -1       105 1.49964E-01
 -1       134 1.49964E-01
 -1       222 1.49964E-01
 -3
    1PSTEP                        10           4           1          
  100CL  104 4.50000E-05           8                     0    4           1
 -4  DISP        4    1
 -5  D1          1    2    1    0
 -5  D2          1    2    2    0
 -5  D3          1    2    3    0
 -5  ALL         1    2    0    0    1ALL
 -1         2 0.00000E+00 0.00000E+00 0.00000E+00
 -1        10 5.32088E-02 0.00000E+00 0.00000E+00
 -1        13 1.26007E-17-5.32088E-02 0.00000E+00
 -1        34 5.28468E-18 2.06927E-17 2.52434E-01
 -1        95 5.32088E-02-5.32088E-02 0.00000E+00
 -1       105 5.32088E-02 2.39353E-17 2.52434E-01
 -1       134 1.42563E-17-5.32088E-02 2.52434E-01
 -1       222 5.32088E-02-5.32088E-02 2.52434E-01
 -3
    1PSTEP                        11           4           1          
  100CL  104 4.50000E-05           8                     0    4           1
 -4  STRESS      6    1
 -5  SXX         1    4    1    1
 -5  SYY         1    4    2    2
 -5  SZZ         1    4    3    3
 -5  SXY         1    4    1    2
 -5  SYZ         1    4    2    3
 -5  SZX         1    4    3    1
 -1         2 5.23516E-04 5.23516E-04 4.49971E+01-2.15122E-12 1.17351E-13 1.35393E-13
 -1        10 5.23516E-04 5.23516E-04 4.49971E+01-2.15122E-12 1.17351E-13 1.35393E-13
 -1        13 5.23516E-04 5.23516E-04 4.49971E+01-2.15122E-12 1.17351E-13 1.35393E-13
 -1        34 5.23516E-04 5.23516E-04 4.49971E+01-2.15122E-12 1.17351E-13 1.35393E-13
 -1        95 5.23516E-04 5.23516E-04 4.49971E+01-2.15122E-12 1.17351E-13 1.35393E-13
 -1       105 5.23516E-04 5.23516E-04 4.49971E+01-2.15122E-12 1.17351E-13 1.35393E-13
 -1       134 5.23516E-04 5.23516E-04 4.49971E+01-2.15122E-12 1.17351E-13 1.35393E-13
 -1       222 5.23516E-04 5.23516E-04 4.49971E+01-2.15122E-12 1.17351E-13 1.35393E-13
 -3
    1PSTEP                        12           4           1          
  100CL  104 4.50000E-05           8                     0    4           1
 -4  PE          1    1
 -5  PE          1    1    0    0
 -1         2 2.24983E-01
 -1        10 2.24983E-01
 -1        13 2.24983E-01
 -1        34 2.24983E-01
 -1        95 2.24983E-01
 -1       105 2.24983E-01
 -1       134 2.24983E-01
 -1       222 2.24983E-01
 -3
    1PSTEP                        13           5           1          
  100CL  105 6.00000E-05           8                     0    5           1
 -4  DISP        4    1
 -5  D1          1    2    1    0
 -5  D2          1    2    2    0
 -5  D3          1    2    3    0
 -5  ALL         1    2    0    0    1ALL
 -1         2 0.00000E+00 0.00000E+00 0.00000E+00
 -1        10 6.96400E-02 0.00000E+00 0.00000E+00
 -1        13-1.16734E-17-6.96400E-02 0.00000E+00
 -1        34-5.45638E-18 4.87886E-17 3.49921E-01
 -1        95 6.96400E-02-6.96400E-02 0.00000E+00
 -1       105 6.96400E-02 5.12369E-17 3.49921E-01
 -1       134-2.18058E-17-6.96400E-02 3.49921E-01
 -1       222 6.96400E-02-6.96400E-02 3.49921E-01
 -3
    1PSTEP                        14           5           1          
  100CL  105 6.00000E-05           8                     0    5           1
 -4  STRESS      6    1
 -5  SXX         1    4    1    1
 -5  SYY         1    4    2    2
 -5  SZZ         1    4    3    3
 -5  SXY         1    4    1    2
 -5  SYZ         1    4    2    3
 -5  SZX         1    4    3    1
 -1         2-1.11678E-02-1.11678E-02 5.99697E+01 4.73925E-13 4.83830E-13-2.29058E-13
 -1        10-1.11678E-02-1.11678E-02 5.99697E+01 4.73925E-13 4.83830E-13-2.29058E-13
 -1        13-1.11678E-02-1.11678E-02 5.99697E+01 4.73925E-13 4.83830E-13-2.29058E-13
 -1        34-1.11678E-02-1.11678E-02 5.99697E+01 4.73925E-13 4.83830E-13-2.29058E-13
 -1        95-1.11678E-02-1.11678E-02 5.99697E+01 4.73925E-13 4.83830E-13-2.29058E-13
 -1       105-1.11678E-02-1.11678E-02 5.99697E+01 4.73925E-13 4.83830E-13-2.29058E-13
 -1       134-1.11678E-02-1.11678E-02 5.99697E+01 4.73925E-13 4.83830E-13-2.29058E-13
 -1       222-1.11678E-02-1.11678E-02 5.99697E+01 4.73925E-13 4.83830E-13-2.29058E-13
 -3
    1PSTEP                        15           5           1          
  100CL  105 6.00000E-05           8                     0    5           1
 -4  PE          1    1
 -5  PE          1    1    0    0
 -1         2 2.99905E-01
 -1        10 2.99905E-01
 -1        13 2.99905E-01
 -1        34 2.99905E-01
 -1        95 2.99905E-01
 -1       105 2.99905E-01
 -1       134 2.99905E-01
 -1       222 2.99905E-01
 -3
    1PSTEP                        16           6           1          
  100CL  106 7.50000E-05           8                     0    6           1
 -4  DISP        4    1
 -5  D1          1    2    1    0
 -5  D2          1    2    2    0
 -5  D3          1    2    3    0
 -5  ALL         1    2    0    0    1ALL
 -1         2 0.00000E+00 0.00000E+00 0.00000E+00
 -1        10 8.54769E-02 0.00000E+00 0.00000E+00
 -1        13 2.11170E-18-8.54769E-02 0.00000E+00
 -1        34-2.09235E-17 5.77377E-17 4.55065E-01
 -1        95 8.54769E-02-8.54769E-02 0.00000E+00
 -1       105 8.54769E-02 5.37062E-17 4.55065E-01
 -1       134-1.90280E-17-8.54769E-02 4.55065E-01
 -1       222 8.54769E-02-8.54769E-02 4.55065E-01
 -3
    1PSTEP                        17           6           1          
  100CL  106 7.50000E-05           8                     0    6           1
 -4  STRESS      6    1
 -5  SXX         1    4    1    1
 -5  SYY         1    4    2    2
 -5  SZZ         1    4    3    3
 -5  SXY         1    4    1    2
 -5  SYZ         1    4    2    3
 -5  SZX         1    4    3    1
 -1         2-1.03746E-02-1.03746E-02 7.49645E+01 1.02255E-11 3.43476E-13-5.08424E-13
 -1        10-1.03746E-02-1.03746E-02 7.49645E+01 1.02255E-11 3.43476E-13-5.08424E-13
 -1        13-1.03746E-02-1.03746E-02 7.49645E+01 1.02255E-11 3.43476E-13-5.08424E-13
 -1        34-1.03746E-02-1.03746E-02 7.49645E+01 1.02255E-11 3.43476E-13-5.08424E-13
 -1        95-1.03746E-02-1.03746E-02 7.49645E+01 1.02255E-11 3.43476E-13-5.08424E-13
 -1       105-1.03746E-02-1.03746E-02 7.49645E+01 1.02255E-11 3.43476E-13-5.08424E-13
 -1       134-1.03746E-02-1.03746E-02 7.49645E+01 1.02255E-11 3.43476E-13-5.08424E-13
 -1       222-1.03746E-02-1.03746E-02 7.49645E+01 1.02255E-11 3.43476E-13-5.08424E-13
 -3
    1PSTEP                        18           6           1          
  100CL  106 7.50000E-05           8                     0    6           1
 -4  PE          1    1
 -5  PE          1    1    0    0
 -1         2 3.74874E-01
 -1        10 3.74874E-01
 -1        13 3.74874E-01
 -1        34 3.74874E-01
 -1        95 3.74874E-01
 -1       105 3.74874E-01
 -1       134 3.74874E-01
 -1       222 3.74874E-01
 -3
    1PSTEP                        19           7           1          
  100CL  107 8.25000E-05           8                     0    7           1
 -4  DISP        4    1
 -5  D1          1    2    1    0
 -5  D2          1    2    2    0
 -5  D3          1    2    3    0
 -5  ALL         1    2    0    0    1ALL
 -1         2 0.00000E+00 0.00000E+00 0.00000E+00
 -1        10 9.31799E-02 0.00000E+00 0.00000E+00
 -1        13 3.44775E-17-9.31799E-02 0.00000E+00
 -1        34 7.90085E-18 2.84223E-17 5.10703E-01
 -1        95 9.31799E-02-9.31799E-02 0.00000E+00
 -1       105 9.31799E-02 3.68092E-17 5.10703E-01
 -1       134 3.42874E-17-9.31799E-02 5.10703E-01
 -1       222 9.31799E-02-9.31799E-02 5.10703E-01
 -3
    1PSTEP                        20           7           1          
  100CL  107 8.25000E-05           8                     0    7           1
 -4  STRESS      6    1
 -5  SXX         1    4    1    1
 -5  SYY         1    4    2    2
 -5  SZZ         1    4    3    3
 -5  SXY         1    4    1    2
 -5  SYZ         1    4    2    3
 -5  SZX         1    4    3    1
 -1         2-5.06922E-03-5.06922E-03 8.24711E+01-1.12918E-11-4.00856E-13 6.88988E-13
 -1        10-5.06922E-03-5.06922E-03 8.24711E+01-1.12918E-11-4.00856E-13 6.88988E-13
 -1        13-5.06922E-03-5.06922E-03 8.24711E+01-1.12918E-11-4.00856E-13 6.88988E-13
 -1        34-5.06922E-03-5.06922E-03 8.24711E+01-1.12918E-11-4.00856E-13 6.88988E-13
 -1        95-5.06922E-03-5.06922E-03 8.24711E+01-1.12918E-11-4.00856E-13 6.88988E-13
 -1       105-5.06922E-03-5.06922E-03 8.24711E+01-1.12918E-11-4.00856E-13 6.88988E-13
 -1       134-5.06922E-03-5.06922E-03 8.24711E+01-1.12918E-11-4.00856E-13 6.88988E-13
 -1       222-5.06922E-03-5.06922E-03 8.24711E+01-1.12918E-11-4.00856E-13 6.88988E-13
 -3
    1PSTEP                        21           7           1          
  100CL  107 8.25000E-05           8                     0    7           1
 -4  PE          1    1
 -5  PE          1    1    0    0
 -1         2 4.12381E-01
 -1        10 4.12381E-01
 -1        13 4.12381E-01
 -1        34 4.12381E-01
 -1        95 4.12381E-01
 -1       105 4.12381E-01
 -1       134 4.12381E-01
 -1       222 4.12381E-01
 -3
    1PSTEP                        22           8           1          
  100CL  108 9.00000E-05           8                     0    8           1
 -4  DISP        4    1
 -5  D1          1    2    1    0
 -5  D2          1    2    2    0
 -5  D3          1    2    3    0
 -5  ALL         1    2    0    0    1ALL
 -1         2 0.00000E+00 0.00000E+00 0.00000E+00
 -1        10 1.00723E-01 0.00000E+00 0.00000E+00
 -1        13 4.99980E-18-1.00723E-01 0.00000E+00
 -1        34 2.05638E-17 4.53116E-17 5.68340E-01
 -1        95 1.00723E-01-1.00723E-01 0.00000E+00
 -1       105 1.00723E-01 4.01806E-17 5.68340E-01
 -1       134 2.83817E-17-1.00723E-01 5.68340E-01
 -1       222 1.00723E-01-1.00723E-01 5.68340E-01
 -3
    1PSTEP                        23           8           1          
  100CL  108 9.00000E-05           8                     0    8           1
 -4  STRESS      6    1
 -5  SXX         1    4    1    1
 -5  SYY         1    4    2    2
 -5  SZZ         1    4    3    3
 -5  SXY         1    4    1    2
 -5  SYZ         1    4    2    3
 -5  SZX         1    4    3    1
 -1         2-1.84284E-02-1.84284E-02 8.99428E+01 1.72060E-12-2.34319E-15 3.09151E-13
 -1        10-1.84284E-02-1.84284E-02 8.99428E+01 1.72060E-12-2.34319E-15 3.09151E-13
 -1        13-1.84284E-02-1.84284E-02 8.99428E+01 1.72060E-12-2.34319E-15 3.09151E-13
 -1        34-1.84284E-02-1.84284E-02 8.99428E+01 1.72060E-12-2.34319E-15 3.09151E-13
 -1        95-1.84284E-02-1.84284E-02 8.99428E+01 1.72060E-12-2.34319E-15 3.09151E-13
 -1       105-1.84284E-02-1.84284E-02 8.99428E+01 1.72060E-12-2.34319E-15 3.09151E-13
 -1       134-1.84284E-02-1.84284E-02 8.99428E+01 1.72060E-12-2.34319E-15 3.09151E-13
 -1       222-1.84284E-02-1.84284E-02 8.99428E+01 1.72060E-12-2.34319E-15 3.09151E-13
 -3
    1PSTEP                        24           8           1          
  100CL  108 9.00000E-05           8                     0    8           1
 -4  PE          1    1
 -5  PE          1    1    0    0
 -1         2 4.49806E-01
 -1        10 4.49806E-01
 -1        13 4.49806E-01
 -1        34 4.49806E-01
 -1        95 4.49806E-01
 -1       105 4.49806E-01
 -1       134 4.49806E-01
 -1       222 4.49806E-01
 -3
    1PSTEP                        25           9           1          
  100CL  109 9.37500E-05           8                     0    9           1
 -4  DISP        4    1
 -5  D1          1    2    1    0
 -5  D2          1    2    2    0
 -5  D3          1    2    3    0
 -5  ALL         1    2    0    0    1ALL
 -1         2 0.00000E+00 0.00000E+00 0.00000E+00
 -1        10 1.04444E-01 0.00000E+00 0.00000E+00
 -1        13-2.09612E-17-1.04444E-01 0.00000E+00
 -1        34 1.03183E-16 1.18676E-16 5.97993E-01
 -1        95 1.04444E-01-1.04444E-01 0.00000E+00
 -1       105 1.04444E-01 1.10580E-16 5.97993E-01
 -1       134 8.74790E-17-1.04444E-01 5.97993E-01
 -1       222 1.04444E-01-1.04444E-01 5.97993E-01
 -3
    1PSTEP                        26           9           1          
  100CL  109 9.37500E-05           8                     0    9           1
 -4  STRESS      6    1
 -5  SXX         1    4    1    1
 -5  SYY         1    4    2    2
 -5  SZZ         1    4    3    3
 -5  SXY         1    4    1    2
 -5  SYZ         1    4    2    3
 -5  SZX         1    4    3    1
 -1         2-2.34456E-02-2.34456E-02 9.36822E+01-3.38764E-12 1.35097E-12 1.71934E-12
 -1        10-2.34456E-02-2.34456E-02 9.36822E+01-3.38764E-12 1.35097E-12 1.71934E-12
 -1        13-2.34456E-02-2.34456E-02 9.36822E+01-3.38764E-12 1.35097E-12 1.71934E-12
 -1        34-2.34456E-02-2.34456E-02 9.36822E+01-3.38764E-12 1.35097E-12 1.71934E-12
 -1        95-2.34456E-02-2.34456E-02 9.36822E+01-3.38764E-12 1.35097E-12 1.71934E-12
 -1       105-2.34456E-02-2.34456E-02 9.36822E+01-3.38764E-12 1.35097E-12 1.71934E-12
 -1       134-2.34456E-02-2.34456E-02 9.36822E+01-3.38764E-12 1.35097E-12 1.71934E-12
 -1       222-2.34456E-02-2.34456E-02 9.36822E+01-3.38764E-12 1.35097E-12 1.71934E-12
 -3
    1PSTEP                        27           9           1          
  100CL  109 9.37500E-05           8                     0    9           1
 -4  PE          1    1
 -5  PE          1    1    0    0
 -1         2 4.68528E-01
 -1        10 4.68528E-01
 -1        13 4.68528E-01
 -1        34 4.68528E-01
 -1        95 4.68528E-01
 -1       105 4.68528E-01
 -1       134 4.68528E-01
 -1       222 4.68528E-01
 -3
    1PSTEP                        28          10           1          
  100CL  110 9.75000E-05           8                     0   10           1
 -4  DISP        4    1
 -5  D1          1    2    1    0
 -5  D2          1    2    2    0
 -5  D3          1    2    3    0
 -5  ALL         1    2    0    0    1ALL
 -1         2 0.00000E+00 0.00000E+00 0.00000E+00
 -1        10 1.08148E-01 0.00000E+00 0.00000E+00
 -1        13-4.64422E-17-1.08148E-01 0.00000E+00
 -1        34 2.66832E-16 2.39977E-16 6.28348E-01
 -1        95 1.08148E-01-1.08148E-01 0.00000E+00
 -1       105 1.08148E-01 2.45822E-16 6.28348E-01
 -1       134 2.12628E-16-1.08148E-01 6.28348E-01
 -1       222 1.08148E-01-1.08148E-01 6.28348E-01
 -3
    1PSTEP                        29          10           1          
  100CL  110 9.75000E-05           8                     0   10           1
 -4  STRESS      6    1
 -5  SXX         1    4    1    1
 -5  SYY         1    4    2    2
 -5  SZZ         1    4    3    3
 -5  SXY         1    4    1    2
 -5  SYZ         1    4    2    3
 -5  SZX         1    4    3    1
 -1         2-6.53241E-03-6.53241E-03 9.74608E+01-5.66547E-12 2.85730E-12 3.49566E-12
 -1        10-6.53241E-03-6.53241E-03 9.74608E+01-5.66547E-12 2.85730E-12 3.49566E-12
 -1        13-6.53241E-03-6.53241E-03 9.74608E+01-5.66547E-12 2.85730E-12 3.49566E-12
 -1        34-6.53241E-03-6.53241E-03 9.74608E+01-5.66547E-12 2.85730E-12 3.49566E-12
 -1        95-6.53241E-03-6.53241E-03 9.74608E+01-5.66547E-12 2.85730E-12 3.49566E-12
 -1       105-6.53241E-03-6.53241E-03 9.74608E+01-5.66547E-12 2.85730E-12 3.49566E-12
 -1       134-6.53241E-03-6.53241E-03 9.74608E+01-5.66547E-12 2.85730E-12 3.49566E-12
 -1       222-6.53241E-03-6.53241E-03 9.74608E+01-5.66547E-12 2.85730E-12 3.49566E-12
 -3
    1PSTEP                        30          10           1          
  100CL  110 9.75000E-05           8                     0   10           1
 -4  PE          1    1
 -5  PE          1    1    0    0
 -1         2 4.87337E-01
 -1        10 4.87337E-01
 -1        13 4.87337E-01
 -1        34 4.87337E-01
 -1        95 4.87337E-01
 -1       105 4.87337E-01
 -1       134 4.87337E-01
 -1       222 4.87337E-01
 -3
    1PSTEP                        31          11           1          
  100CL  111 1.00000E-04           8                     0   11           1
 -4  DISP        4    1
 -5  D1          1    2    1    0
 -5  D2          1    2    2    0
 -5  D3          1    2    3    0
 -5  ALL         1    2    0    0    1ALL
 -1         2 0.00000E+00 0.00000E+00 0.00000E+00
 -1        10 1.10630E-01 0.00000E+00 0.00000E+00
 -1        13-9.43252E-17-1.10630E-01 0.00000E+00
 -1        34 2.87507E-16 2.53776E-16 6.49178E-01
 -1        95 1.10630E-01-1.10630E-01 0.00000E+00
 -1       105 1.10630E-01 2.59511E-16 6.49178E-01
 -1       134 1.77355E-16-1.10630E-01 6.49178E-01
 -1       222 1.10630E-01-1.10630E-01 6.49178E-01
 -3
    1PSTEP                        32          11           1          
  100CL  111 1.00000E-04           8                     0   11           1
 -4  STRESS      6    1
 -5  SXX         1    4    1    1
 -5  SYY         1    4    2    2
 -5  SZZ         1    4    3    3
 -5  SXY         1    4    1    2
 -5  SYZ         1    4    2    3
 -5  SZX         1    4    3    1
 -1         2-5.59103E-03-5.59103E-03 1.00003E+02 5.18126E-12 9.78185E-13 1.21397E-12
 -1        10-5.59103E-03-5.59103E-03 1.00003E+02 5.18126E-12 9.78185E-13 1.21397E-12
 -1        13-5.59103E-03-5.59103E-03 1.00003E+02 5.18126E-12 9.78185E-13 1.21397E-12
 -1        34-5.59103E-03-5.59103E-03 1.00003E+02 5.18126E-12 9.78185E-13 1.21397E-12
 -1        95-5.59103E-03-5.59103E-03 1.00003E+02 5.18126E-12 9.78185E-13 1.21397E-12
 -1       105-5.59103E-03-5.59103E-03 1.00003E+02 5.18126E-12 9.78185E-13 1.21397E-12
 -1       134-5.59103E-03-5.59103E-03 1.00003E+02 5.18126E-12 9.78185E-13 1.21397E-12
 -1       222-5.59103E-03-5.59103E-03 1.00003E+02 5.18126E-12 9.78185E-13 1.21397E-12
 -3
    1PSTEP                        33          11           1          
  100CL  111 1.00000E-04           8                     0   11           1
 -4  PE          1    1
 -5  PE          1    1    0    0
 -1         2 5.00042E-01
 -1        10 5.00042E-01
 -1        13 5.00042E-01
 -1        34 5.00042E-01
 -1        95 5.00042E-01
 -1       105 5.00042E-01
 -1       134 5.00042E-01
 -1       222 5.00042E-01
 -3
    1PSTEP                        34           1           2          
  100CL  112 1.10000E-04           8                     0   12           1
 -4  DISP        4    1
 -5  D1          1    2    1    0
 -5  D2          1    2    2    0
 -5  D3          1    2    3    0
 -5  ALL         1    2    0    0    1ALL
 -1         2 0.00000E+00 0.00000E+00 0.00000E+00
 -1        10 1.10630E-01 0.00000E+00 0.00000E+00
 -1        13-1.84570E-16-1.10630E-01 0.00000E+00
 -1        34 2.66031E-16 2.33217E-16 6.49178E-01
 -1        95 1.10630E-01-1.10630E-01 0.00000E+00
 -1       105 1.10630E-01 2.38951E-16 6.49178E-01
 -1       134 7.95127E-17-1.10630E-01 6.49178E-01
 -1       222 1.10630E-01-1.10630E-01 6.49178E-01
 -3
    1PSTEP                        35           1           2          
  100CL  112 1.10000E-04           8                     0   12           1
 -4  STRESS      6    1
 -5  SXX         1    4    1    1
 -5  SYY         1    4    2    2
 -5  SZZ         1    4    3    3
 -5  SXY         1    4    1    2
 -5  SYZ         1    4    2    3
 -5  SZX         1    4    3    1
 -1         2-2.21050E-10-2.59107E-10 1.00000E+02-1.23325E-11-4.75414E-13 4.87174E-13
 -1        10-2.21050E-10-2.59107E-10 1.00000E+02-1.23325E-11-4.75414E-13 4.87174E-13
 -1        13-2.21050E-10-2.59107E-10 1.00000E+02-1.23325E-11-4.75414E-13 4.87174E-13
 -1        34-2.21050E-10-2.59107E-10 1.00000E+02-1.23325E-11-4.75414E-13 4.87174E-13
 -1        95-2.21050E-10-2.59107E-10 1.00000E+02-1.23325E-11-4.75414E-13 4.87174E-13
 -1       105-2.21050E-10-2.59107E-10 1.00000E+02-1.23325E-11-4.75414E-13 4.87174E-13
 -1       134-2.21050E-10-2.59107E-10 1.00000E+02-1.23325E-11-4.75414E-13 4.87174E-13
 -1       222-2.21050E-10-2.59107E-10 1.00000E+02-1.23325E-11-4.75414E-13 4.87174E-13
 -3
    1PSTEP                        36           1           2          
  100CL  112 1.10000E-04           8                     0   12           1
 -4  PE          1    1
 -5  PE          1    1    0    0
 -1         2 5.00042E-01
 -1        10 5.00042E-01
 -1        13 5.00042E-01
 -1        34 5.00042E-01
 -1        95 5.00042E-01
 -1       105 5.00042E-01
 -1       134 5.00042E-01
 -1       222 5.00042E-01
 -3
    1PSTEP                        37           2           2          
  100CL  113 1.20000E-04           8                     0   13           1
 -4  DISP        4    1
 -5  D1          1    2    1    0
 -5  D2          1    2    2    0
 -5  D3          1    2    3    0
 -5  ALL         1    2    0    0    1ALL
 -1         2 0.00000E+00 0.00000E+00 0.00000E+00
 -1        10 1.10630E-01 0.00000E+00 0.00000E+00
 -1        13-9.90512E-17-1.10630E-01 0.00000E+00
 -1        34 2.58074E-16 2.40777E-16 6.49178E-01
 -1        95 1.10630E-01-1.10630E-01 0.00000E+00
 -1       105 1.10630E-01 2.45805E-16 6.49178E-01
 -1       134 1.57780E-16-1.10630E-01 6.49178E-01
 -1       222 1.10630E-01-1.10630E-01 6.49178E-01
 -3
    1PSTEP                        38           2           2          
  100CL  113 1.20000E-04           8                     0   13           1
 -4  STRESS      6    1
 -5  SXX         1    4    1    1
 -5  SYY         1    4    2    2
 -5  SZZ         1    4    3    3
 -5  SXY         1    4    1    2
 -5  SYZ         1    4    2    3
 -5  SZX         1    4    3    1
 -1         2 2.80131E-10 2.42075E-10 1.00000E+02 3.42988E-12 9.11843E-15-2.39625E-13
 -1        10 2.80131E-10 2.42075E-10 1.00000E+02 3.42988E-12 9.11843E-15-2.39625E-13
 -1        13 2.80131E-10 2.42075E-10 1.00000E+02 3.42988E-12 9.11843E-15-2.39625E-13
 -1        34 2.80131E-10 2.42075E-10 1.00000E+02 3.42988E-12 9.11843E-15-2.39625E-13
 -1        95 2.80131E-10 2.42075E-10 1.00000E+02 3.42988E-12 9.11843E-15-2.39625E-13
 -1       105 2.80131E-10 2.42075E-10 1.00000E+02 3.42988E-12 9.11843E-15-2.39625E-13
 -1       134 2.80131E-10 2.42075E-10 1.00000E+02 3.42988E-12 9.11843E-15-2.39625E-13
 -1       222 2.80131E-10 2.42075E-10 1.00000E+02 3.42988E-12 9.11843E-15-2.39625E-13
 -3
    1PSTEP                        39           2           2          
  100CL  113 1.20000E-04           8                     0   13           1
 -4  PE          1    1
 -5  PE          1    1    0    0
 -1         2 5.00042E-01
 -1        10 5.00042E-01
 -1        13 5.00042E-01