    1C
    1UModel: beam     Date: 10-Mar-1998                                 
    1UUSER                                                              
    1UDATE              08.september.2023                               
    1UTIME              18:28:23                                        
    1UHOST                                                              
    1UPGM               CalculiX                                        
    1UVERSION           Version DEVELOPMENT                             
    1UCOMPILETIME       Fri Sep  8 17:06:58 CEST 2023                    
    1UDIR                                                               
    1UDBN                                                               
    1UMAT    1EL                                                        
    2C                            20                                     1
 -1         2 1.00000E+00 0.00000E+00 0.00000E+00
 -1        10 5.00000E-01 0.00000E+00 0.00000E+00
 -1        11 7.50000E-01 0.00000E+00 0.00000E+00
 -1        12 1.00000E+00 2.50000E-01 0.00000E+00
 -1        13 1.00000E+00 5.00000E-01 0.00000E+00
 -1        33 1.00000E+00 0.00000E+00 5.00000E-01
 -1        34 1.00000E+00 0.00000E+00 1.00000E+00
 -1        93 5.00000E-01 2.50000E-01 0.00000E+00
 -1        95 5.00000E-01 5.00000E-01 0.00000E+00
 -1        96 7.50000E-01 5.00000E-01 0.00000E+00
 -1       103 5.00000E-01 0.00000E+00 5.00000E-01
 -1       105 5.00000E-01 0.00000E+00 1.00000E+00
 -1       106 7.50000E-01 0.00000E+00 1.00000E+00
 -1       132 1.00000E+00 5.00000E-01 5.00000E-01
 -1       133 1.00000E+00 2.50000E-01 1.00000E+00
 -1       134 1.00000E+00 5.00000E-01 1.00000E+00
 -1       219 5.00000E-01 5.00000E-01 5.00000E-01
 -1       220 5.00000E-01 2.50000E-01 1.00000E+00
 -1       222 5.00000E-01 5.00000E-01 1.00000E+00
 -1       223 7.50000E-01 5.00000E-01 1.00000E+00
 -3
    3C                             1                                     1
 -1         1    4    0    1
 -2        10         2        13        95       105        34       134       222        11        12
 -2        96        93       103        33       132       219       106       133       223       220
 -3
    1PSTEP                         1           1           1          
  100CL  101 1.000000000          20                     0    1           1
 -4  DISP        4    1
 -5  D1          1    2    1    0
 -5  D2          1    2    2    0
 -5  D3          1    2    3    0
 -5  ALL         1    2    0    0    1ALL
 -1         2 0.00000E+00 0.00000E+00 0.00000E+00
 -1        10 3.78379E-03 0.00000E+00 0.00000E+00
 -1        11 1.89189E-03 1.36153E-16 0.00000E+00
 -1        12 4.47944E-16-1.89189E-03 0.00000E+00
 -1        13 1.17875E-15-3.78379E-03 0.00000E+00
 -1        33-4.51876E-16 8.98163E-16 7.64124E-03
 -1        34-2.19773E-15 2.67124E-15 1.52825E-02
 -1        93 3.78379E-03-1.89189E-03 0.00000E+00
 -1        95 3.78379E-03-3.78379E-03 0.00000E+00
 -1        96 1.89189E-03-3.78379E-03 0.00000E+00
 -1       103 3.78379E-03 1.03138E-15 7.64124E-03
 -1       105 3.78379E-03 3.36344E-15 1.52825E-02
 -1       106 1.89189E-03 2.98615E-15 1.52825E-02
 -1       132 4.21770E-16-3.78379E-03 7.64124E-03
 -1       133-1.89080E-15-1.89189E-03 1.52825E-02
 -1       134-1.56442E-15-3.78379E-03 1.52825E-02
 -1       219 3.78379E-03-3.78379E-03 7.64124E-03
 -1       220 3.78379E-03-1.89189E-03 1.52825E-02
 -1       222 3.78379E-03-3.78379E-03 1.52825E-02
 -1       223 1.89189E-03-3.78379E-03 1.52825E-02
 -3
    1PSTEP                         2           1           1          
  100CL  101 1.000000000          20                     0    1           1
 -4  STRESS      6    1
 -5  SXX         1    4    1    1
 -5  SYY         1    4    2    2
 -5  SZZ         1    4    3    3
 -5  SXY         1    4    1    2
 -5  SYZ         1    4    2    3
 -5  SZX         1    4    3    1
 -1         2-1.05736E-11-1.58577E-11 1.19995E+02 6.51003E-13 3.63912E-12 1.59696E-12
 -1        10-2.53468E-11-1.66992E-11 1.19995E+02-2.49463E-12 3.01515E-12-2.23105E-12
 -1        11-2.70066E-12 6.61693E-15 1.20006E+02-1.41408E-12 2.71312E-12-3.14378E-13
 -1        12 4.99967E-13-7.43537E-12 1.20006E+02-1.06195E-12 5.90589E-12 7.21177E-13
 -1        13 9.92121E-12 8.20414E-14 1.19995E+02-1.50640E-12 6.94816E-12-1.12557E-12
 -1        33 1.53397E-12 8.36584E-13 1.20006E+02 1.84156E-12-4.66276E-12 3.17021E-12
 -1        34 1.34259E-11 1.76869E-11 1.19995E+02 1.62411E-13-2.19539E-13-1.93368E-12
 -1        93-1.83540E-12 3.02992E-12 1.20006E+02-2.04737E-12 2.57298E-12-1.38991E-13
 -1        95 8.50118E-12 9.29885E-12 1.19995E+02-2.77513E-13 2.18980E-12 6.30443E-13
 -1        96 4.11627E-12 1.37958E-13 1.20006E+02-1.14775E-12 3.81936E-12 4.47180E-13
 -1       103-1.38287E-11-1.02901E-11 1.20006E+02-1.02512E-12 1.98520E-12-1.30242E-12
 -1       105-1.59303E-11-1.68777E-11 1.19995E+02-2.59490E-12 3.14794E-12-6.84126E-12
 -1       106 2.50488E-12 3.63905E-12 1.20006E+02-1.68983E-13 1.43894E-13-4.28297E-12
 -1       132 8.56584E-12 6.47209E-12 1.20006E+02-2.44402E-13 1.20081E-12-1.10251E-12
 -1       133-5.10104E-12-1.13408E-13 1.20006E+02-9.47968E-14 4.47561E-12 5.64580E-13
 -1       134 1.01991E-11 1.60408E-11 1.19995E+02-1.79129E-12 8.13354E-12 3.03097E-12
 -1       219-7.80729E-13-2.12023E-12 1.20006E+02 6.70259E-13 1.94250E-12-2.17037E-12
 -1       220 8.36128E-12 6.82266E-12 1.20006E+02-1.47837E-12 3.41672E-12-3.60363E-12
 -1       222 7.72640E-12 6.34905E-12 1.19995E+02-1.64286E-12 3.82666E-12-6.20354E-13
 -1       223-2.53253E-12 3.12339E-13 1.20006E+02-8.26842E-13 4.92236E-12 1.80483E-12
 -3
    1PSTEP                         3           1           1          
  100CL  101 1.000000000          20                     0    1           1
 -4  SDV        20    1
 -5  SDV1        1    1    0    0
 -5  SDV2        1    1    0    0
 -5  SDV3        1    1    0    0
 -5  SDV4        1    1    0    0
 -5  SDV5        1    1    0    0
 -5  SDV6        1    1    0    0
 -5  SDV7        1    1    0    0
 -5  SDV8        1    1    0    0
 -5  SDV9        1    1    0    0
 -5  SDV10       1    1    0    0
 -5  SDV11       1    1    0    0
 -5  SDV12       1    1    0    0
 -5  SDV13       1    1    0    0
 -5  SDV14       1    1    0    0
 -5  SDV15       1    1    0    0
 -5  SDV16       1    1    0    0
 -5  SDV17       1    1    0    0
 -5  SDV18       1    1    0    0
 -5  SDV19       1    1    0    0
 -5  SDV20       1    1    0    0
 -1         2 1.49994E-02-7.49970E-03-7.49970E-03 1.49994E-02 7.88200E-17 1.93351E-16
 -2           4.40606E-16 1.49994E-02-7.49970E-03-7.49970E-03 1.49994E-02 7.88200E-17
 -2           1.93351E-16 4.40606E-16 0.00000E+00 0.00000E+00 0.00000E+00 0.00000E+00
 -2           0.00000E+00 0.00000E+00
 -1        10 1.49994E-02-7.49970E-03-7.49970E-03 1.49994E-02-3.02037E-16-2.70124E-16
 -2           3.65059E-16 1.49994E-02-7.49970E-03-7.49970E-03 1.49994E-02-3.02037E-16
 -2          -2.70124E-16 3.65059E-16 0.00000E+00 0.00000E+00 0.00000E+00 0.00000E+00
 -2           0.00000E+00 0.00000E+00
 -1        11 1.50008E-02-7.50038E-03-7.50038E-03 1.50008E-02-1.71210E-16-3.80632E-17
 -2           3.28490E-16 1.50008E-02-7.50038E-03-7.50038E-03 1.50008E-02-1.71210E-16
 -2          -3.80632E-17 3.28490E-16 0.00000E+00 0.00000E+00 0.00000E+00 0.00000E+00
 -2           0.00000E+00 0.00000E+00
 -1        12 1.50008E-02-7.50038E-03-7.50038E-03 1.50008E-02-1.28575E-16 8.73163E-17
 -2           7.15054E-16 1.50008E-02-7.50038E-03-7.50038E-03 1.50008E-02-1.28575E-16
 -2           8.73163E-17 7.15054E-16 0.00000E+00 0.00000E+00 0.00000E+00 0.00000E+00
 -2           0.00000E+00 0.00000E+00
 -1        13 1.49994E-02-7.49970E-03-7.49970E-03 1.49994E-02-1.82387E-16-1.36278E-16
 -2           8.41247E-16 1.49994E-02-7.49970E-03-7.49970E-03 1.49994E-02-1.82387E-16
 -2          -1.36278E-16 8.41247E-16 0.00000E+00 0.00000E+00 0.00000E+00 0.00000E+00
 -2           0.00000E+00 0.00000E+00
 -1        33 1.50008E-02-7.50038E-03-7.50038E-03 1.50008E-02 2.22967E-16 3.83832E-16
 -2          -5.64543E-16 1.50008E-02-7.50038E-03-7.50038E-03 1.50008E-02 2.22967E-16
 -2           3.83832E-16-5.64543E-16 0.00000E+00 0.00000E+00 0.00000E+00 0.00000E+00
 -2           0.00000E+00 0.00000E+00
 -1        34 1.49994E-02-7.49970E-03-7.49970E-03 1.49994E-02 1.96638E-17-2.34120E-16
 -2          -2.65806E-17 1.49994E-02-7.49970E-03-7.49970E-03 1.49994E-02 1.96638E-17
 -2          -2.34120E-16-2.65806E-17 0.00000E+00 0.00000E+00 0.00000E+00 0.00000E+00
 -2           0.00000E+00 0.00000E+00
 -1        93 1.50008E-02-7.50038E-03-7.50038E-03 1.50008E-02-2.47885E-16-1.68283E-17
 -2           3.11524E-16 1.50008E-02-7.50038E-03-7.50038E-03 1.50008E-02-2.47885E-16
 -2          -1.68283E-17 3.11524E-16 0.00000E+00 0.00000E+00 0.00000E+00 0.00000E+00
 -2           0.00000E+00 0.00000E+00
 -1        95 1.49994E-02-7.49970E-03-7.49970E-03 1.49994E-02-3.35998E-17 7.63307E-17
 -2           2.65130E-16 1.49994E-02-7.49970E-03-7.49970E-03 1.49994E-02-3.35998E-17
 -2           7.63307E-17 2.65130E-16 0.00000E+00 0.00000E+00 0.00000E+00 0.00000E+00
 -2           0.00000E+00 0.00000E+00
 -1        96 1.50008E-02-7.50038E-03-7.50038E-03 1.50008E-02-1.38963E-16 5.41422E-17
 -2           4.62428E-16 1.50008E-02-7.50038E-03-7.50038E-03 1.50008E-02-1.38963E-16
 -2           5.41422E-17 4.62428E-16 0.00000E+00 0.00000E+00 0.00000E+00 0.00000E+00
 -2           0.00000E+00 0.00000E+00
 -1       103 1.50008E-02-7.50038E-03-7.50038E-03 1.50008E-02-1.24116E-16-1.57690E-16
 -2           2.40358E-16 1.50008E-02-7.50038E-03-7.50038E-03 1.50008E-02-1.24116E-16
 -2          -1.57690E-16 2.40358E-16 0.00000E+00 0.00000E+00 0.00000E+00 0.00000E+00
 -2           0.00000E+00 0.00000E+00
 -1       105 1.49994E-02-7.49970E-03-7.49970E-03 1.49994E-02-3.14177E-16-8.28305E-16
 -2           3.81137E-16 1.49994E-02-7.49970E-03-7.49970E-03 1.49994E-02-3.14177E-16
 -2          -8.28305E-16 3.81137E-16 0.00000E+00 0.00000E+00 0.00000E+00 0.00000E+00
 -2           0.00000E+00 0.00000E+00
 -1       106 1.50008E-02-7.50038E-03-7.50038E-03 1.50008E-02-2.04595E-17-5.18560E-16
 -2           1.74219E-17 1.50008E-02-7.50038E-03-7.50038E-03 1.50008E-02-2.04595E-17
 -2          -5.18560E-16 1.74219E-17 0.00000E+00 0.00000E+00 0.00000E+00 0.00000E+00
 -2           0.00000E+00 0.00000E+00
 -1       132 1.50008E-02-7.50038E-03-7.50038E-03 1.50008E-02-2.95909E-17-1.33486E-16
 -2           1.45388E-16 1.50008E-02-7.50038E-03-7.50038E-03 1.50008E-02-2.95909E-17
 -2          -1.33486E-16 1.45388E-16 0.00000E+00 0.00000E+00 0.00000E+00 0.00000E+00
 -2           0.00000E+00 0.00000E+00
 -1       133 1.50008E-02-7.50038E-03-7.50038E-03 1.50008E-02-1.14775E-17 6.83564E-17
 -2           5.41884E-16 1.50008E-02-7.50038E-03-7.50038E-03 1.50008E-02-1.14775E-17
 -2           6.83564E-17 5.41884E-16 0.00000E+00 0.00000E+00 0.00000E+00 0.00000E+00
 -2           0.00000E+00 0.00000E+00
 -1       134 1.49994E-02-7.49970E-03-7.49970E-03 1.49994E-02-2.16880E-16 3.66975E-16
 -2           9.84766E-16 1.49994E-02-7.49970E-03-7.49970E-03 1.49994E-02-2.16880E-16
 -2           3.66975E-16 9.84766E-16 0.00000E+00 0.00000E+00 0.00000E+00 0.00000E+00
 -2           0.00000E+00 0.00000E+00
 -1       219 1.50008E-02-7.50038E-03-7.50038E-03 1.50008E-02 8.11515E-17-2.62777E-16
 -2           2.35188E-16 1.50008E-02-7.50038E-03-7.50038E-03 1.50008E-02 8.11515E-17
 -2          -2.62777E-16 2.35188E-16 0.00000E+00 0.00000E+00 0.00000E+00 0.00000E+00
 -2           0.00000E+00 0.00000E+00
 -1       220 1.50008E-02-7.50038E-03-7.50038E-03 1.50008E-02-1.78994E-16-4.36308E-16
 -2           4.13678E-16 1.50008E-02-7.50038E-03-7.50038E-03 1.50008E-02-1.78994E-16
 -2          -4.36308E-16 4.13678E-16 0.00000E+00 0.00000E+00 0.00000E+00 0.00000E+00
 -2           0.00000E+00 0.00000E+00
 -1       222 1.49994E-02-7.49970E-03-7.49970E-03 1.49994E-02-1.98909E-16-7.51092E-17
 -2           4.63312E-16 1.49994E-02-7.49970E-03-7.49970E-03 1.49994E-02-1.98909E-16
 -2          -7.51092E-17 4.63312E-16 0.00000E+00 0.00000E+00 0.00000E+00 0.00000E+00
 -2           0.00000E+00 0.00000E+00
 -1       223 1.50008E-02-7.50038E-03-7.50038E-03 1.50008E-02-1.00110E-16 2.18520E-16
 -2           5.95973E-16 1.50008E-02-7.50038E-03-7.50038E-03 1.50008E-02-1.00110E-16
 -2           2.18520E-16 5.95973E-16 0.00000E+00 0.00000E+00 0.00000E+00 0.00000E+00
 -2           0.00000E+00 0.00000E+00
 -3
 9999
