    1C
    1UModel: beam     Date: 10-Mar-1998                                 
    1UUSER                                                              
    1UDATE              10.october.2025                                 
    1UTIME              13:32:55                                        
    1UHOST                                                              
    1UPGM               CalculiX                                        
    1UVERSION           Version DEVELOPMENT                             
    1UCOMPILETIME       Wed Oct  8 19:02:19 CEST 2025                    
    1UDIR                                                               
    1UDBN                                                               
    1UMAT    1EL                                                        
    2C                             8                                     1
 -1         2 1.00000E+00 0.00000E+00 0.00000E+00
 -1        10 5.00000E-01 0.00000E+00 0.00000E+00
 -1        13 1.00000E+00 5.00000E-01 0.00000E+00
 -1        34 1.00000E+00 0.00000E+00 1.00000E+00
 -1        95 5.00000E-01 5.00000E-01 0.00000E+00
 -1       105 5.00000E-01 0.00000E+00 1.00000E+00
 -1       134 1.00000E+00 5.00000E-01 1.00000E+00
 -1       222 5.00000E-01 5.00000E-01 1.00000E+00
 -3
    3C                             1                                     1
 -1         1    1    0    1
 -2        10         2        13        95       105        34       134       222
 -3
    1PSTEP                         1           1           1          
  100CL  101 1.00000E-05           8                     1    1           1
 -4  DISP        4    1
 -5  D1          1    2    1    0
 -5  D2          1    2    2    0
 -5  D3          1    2    3    0
 -5  ALL         1    2    0    0    1ALL
 -1         2 0.00000E+00 0.00000E+00 0.00000E+00
 -1        10 9.52733E-03 0.00000E+00 0.00000E+00
 -1        13-1.15270E-03-9.45112E-03 0.00000E+00
 -1        34-3.80740E-03 4.29457E-03 3.91264E-02
 -1        95 8.38757E-03-9.46292E-03 0.00000E+00
 -1       105 5.73286E-03 4.28277E-03 3.91176E-02
 -1       134-4.94717E-03-5.16975E-03 3.91165E-02
 -1       222 4.59310E-03-5.18155E-03 3.91077E-02
 -3
    1PSTEP                         2           1           1          
  100CL  101 1.00000E-05           8                     1    1           1
 -4  STRESS      6    1
 -5  SXX         1    4    1    1
 -5  SYY         1    4    2    2
 -5  SZZ         1    4    3    3
 -5  SXY         1    4    1    2
 -5  SYZ         1    4    2    3
 -5  SZX         1    4    3    1
 -1         2 2.84621E-01 3.05140E-01 7.96384E+00-1.54623E-01 2.89937E-01-2.56932E-01
 -1        10 2.84621E-01 3.05140E-01 7.96384E+00-1.54623E-01 2.89937E-01-2.56932E-01
 -1        13 2.84621E-01 3.05140E-01 7.96384E+00-1.54623E-01 2.89937E-01-2.56932E-01
 -1        34 2.84621E-01 3.05140E-01 7.96384E+00-1.54623E-01 2.89937E-01-2.56932E-01
 -1        95 2.84621E-01 3.05140E-01 7.96384E+00-1.54623E-01 2.89937E-01-2.56932E-01
 -1       105 2.84621E-01 3.05140E-01 7.96384E+00-1.54623E-01 2.89937E-01-2.56932E-01
 -1       134 2.84621E-01 3.05140E-01 7.96384E+00-1.54623E-01 2.89937E-01-2.56932E-01
 -1       222 2.84621E-01 3.05140E-01 7.96384E+00-1.54623E-01 2.89937E-01-2.56932E-01
 -3
    1PSTEP                         3           1           1          
  100CL  101 1.00000E-05           8                     1    1           1
 -4  PE          1    1
 -5  PE          1    1    0    0
 -1         2 3.85147E-02
 -1        10 3.85147E-02
 -1        13 3.85147E-02
 -1        34 3.85147E-02
 -1        95 3.85147E-02
 -1       105 3.85147E-02
 -1       134 3.85147E-02
 -1       222 3.85147E-02
 -3
    1PSTEP                         4           2           1          
  100CL  102 2.00000E-05           8                     1    2           1
 -4  DISP        4    1
 -5  D1          1    2    1    0
 -5  D2          1    2    2    0
 -5  D3          1    2    3    0
 -5  ALL         1    2    0    0    1ALL
 -1         2 0.00000E+00 0.00000E+00 0.00000E+00
 -1        10 3.09867E-02 0.00000E+00 0.00000E+00
 -1        13-1.80352E-03-3.09706E-02 0.00000E+00
 -1        34-8.32719E-03 8.59536E-03 1.36534E-01
 -1        95 2.91907E-02-3.09801E-02 0.00000E+00
 -1       105 2.26670E-02 8.58580E-03 1.36526E-01
 -1       134-1.01232E-02-2.23828E-02 1.36526E-01
 -1       222 2.08710E-02-2.23924E-02 1.36518E-01
 -3
    1PSTEP                         5           2           1          
  100CL  102 2.00000E-05           8                     1    2           1
 -4  STRESS      6    1
 -5  SXX         1    4    1    1
 -5  SYY         1    4    2    2
 -5  SZZ         1    4    3    3
 -5  SXY         1    4    1    2
 -5  SYZ         1    4    2    3
 -5  SZX         1    4    3    1
 -1         2 4.66112E-02 2.29989E-02 2.56412E+01-1.44432E-01 4.29050E-01-4.47228E-01
 -1        10 4.66112E-02 2.29989E-02 2.56412E+01-1.44432E-01 4.29050E-01-4.47228E-01
 -1        13 4.66112E-02 2.29989E-02 2.56412E+01-1.44432E-01 4.29050E-01-4.47228E-01
 -1        34 4.66112E-02 2.29989E-02 2.56412E+01-1.44432E-01 4.29050E-01-4.47228E-01
 -1        95 4.66112E-02 2.29989E-02 2.56412E+01-1.44432E-01 4.29050E-01-4.47228E-01
 -1       105 4.66112E-02 2.29989E-02 2.56412E+01-1.44432E-01 4.29050E-01-4.47228E-01
 -1       134 4.66112E-02 2.29989E-02 2.56412E+01-1.44432E-01 4.29050E-01-4.47228E-01
 -1       222 4.66112E-02 2.29989E-02 2.56412E+01-1.44432E-01 4.29050E-01-4.47228E-01
 -3
    1PSTEP                         6           2           1          
  100CL  102 2.00000E-05           8                     1    2           1
 -4  PE          1    1
 -5  PE          1    1    0    0
 -1         2 1.28151E-01
 -1        10 1.28151E-01
 -1        13 1.28151E-01
 -1        34 1.28151E-01
 -1        95 1.28151E-01
 -1       105 1.28151E-01
 -1       134 1.28151E-01
 -1       222 1.28151E-01
 -3
    1PSTEP                         7           3           1          
  100CL  103 3.00000E-05           8                     1    3           1
 -4  DISP        4    1
 -5  D1          1    2    1    0
 -5  D2          1    2    2    0
 -5  D3          1    2    3    0
 -5  ALL         1    2    0    0    1ALL
 -1         2 0.00000E+00 0.00000E+00 0.00000E+00
 -1        10 4.68048E-02 0.00000E+00 0.00000E+00
 -1        13-1.13315E-03-4.68054E-02 0.00000E+00
 -1        34-4.66467E-03 4.42118E-03 2.17203E-01
 -1        95 4.56588E-02-4.67908E-02 0.00000E+00
 -1       105 4.21273E-02 4.43569E-03 2.17225E-01
 -1       134-5.81066E-03-4.23703E-02 2.17227E-01
 -1       222 4.09813E-02-4.23558E-02 2.17249E-01
 -3
    1PSTEP                         8           3           1          
  100CL  103 3.00000E-05           8                     1    3           1
 -4  STRESS      6    1
 -5  SXX         1    4    1    1
 -5  SYY         1    4    2    2
 -5  SZZ         1    4    3    3
 -5  SXY         1    4    1    2
 -5  SYZ         1    4    2    3
 -5  SZX         1    4    3    1
 -1         2-2.52784E-01-2.65239E-01 3.90624E+01 2.41201E-01-6.60531E-01 5.72304E-01
 -1        10-2.52784E-01-2.65239E-01 3.90624E+01 2.41201E-01-6.60531E-01 5.72304E-01
 -1        13-2.52784E-01-2.65239E-01 3.90624E+01 2.41201E-01-6.60531E-01 5.72304E-01
 -1        34-2.52784E-01-2.65239E-01 3.90624E+01 2.41201E-01-6.60531E-01 5.72304E-01
 -1        95-2.52784E-01-2.65239E-01 3.90624E+01 2.41201E-01-6.60531E-01 5.72304E-01
 -1       105-2.52784E-01-2.65239E-01 3.90624E+01 2.41201E-01-6.60531E-01 5.72304E-01
 -1       134-2.52784E-01-2.65239E-01 3.90624E+01 2.41201E-01-6.60531E-01 5.72304E-01
 -1       222-2.52784E-01-2.65239E-01 3.90624E+01 2.41201E-01-6.60531E-01 5.72304E-01
 -3
    1PSTEP                         9           3           1          
  100CL  103 3.00000E-05           8                     1    3           1
 -4  PE          1    1
 -5  PE          1    1    0    0
 -1         2 1.96764E-01
 -1        10 1.96764E-01
 -1        13 1.96764E-01
 -1        34 1.96764E-01
 -1        95 1.96764E-01
 -1       105 1.96764E-01
 -1       134 1.96764E-01
 -1       222 1.96764E-01
 -3
    1PSTEP                        10           4           1          
  100CL  104 4.00000E-05           8                     1    4           1
 -4  DISP        4    1
 -5  D1          1    2    1    0
 -5  D2          1    2    2    0
 -5  D3          1    2    3    0
 -5  ALL         1    2    0    0    1ALL
 -1         2 0.00000E+00 0.00000E+00 0.00000E+00
 -1        10 5.40659E-02 0.00000E+00 0.00000E+00
 -1        13-1.05493E-03-5.40488E-02 0.00000E+00
 -1        34-3.28785E-03 3.39803E-03 2.57168E-01
 -1        95 5.30054E-02-5.40444E-02 0.00000E+00
 -1       105 5.07725E-02 3.40248E-03 2.57187E-01
 -1       134-4.34834E-03-5.06465E-02 2.57183E-01
 -1       222 4.97120E-02-5.06421E-02 2.57201E-01
 -3
    1PSTEP                        11           4           1          
  100CL  104 4.00000E-05           8                     1    4           1
 -4  STRESS      6    1
 -5  SXX         1    4    1    1
 -5  SYY         1    4    2    2
 -5  SZZ         1    4    3    3
 -5  SXY         1    4    1    2
 -5  SYZ         1    4    2    3
 -5  SZX         1    4    3    1
 -1         2-7.64625E-02-4.32510E-02 4.57383E+01 7.72988E-02-3.76474E-01 5.07775E-01
 -1        10-7.64625E-02-4.32510E-02 4.57383E+01 7.72988E-02-3.76474E-01 5.07775E-01
 -1        13-7.64625E-02-4.32510E-02 4.57383E+01 7.72988E-02-3.76474E-01 5.07775E-01
 -1        34-7.64625E-02-4.32510E-02 4.57383E+01 7.72988E-02-3.76474E-01 5.07775E-01
 -1        95-7.64625E-02-4.32510E-02 4.57383E+01 7.72988E-02-3.76474E-01 5.07775E-01
 -1       105-7.64625E-02-4.32510E-02 4.57383E+01 7.72988E-02-3.76474E-01 5.07775E-01
 -1       134-7.64625E-02-4.32510E-02 4.57383E+01 7.72988E-02-3.76474E-01 5.07775E-01
 -1       222-7.64625E-02-4.32510E-02 4.57383E+01 7.72988E-02-3.76474E-01 5.07775E-01
 -3
    1PSTEP                        12           4           1          
  100CL  104 4.00000E-05           8                     1    4           1
 -4  PE          1    1
 -5  PE          1    1    0    0
 -1         2 2.29057E-01
 -1        10 2.29057E-01
 -1        13 2.29057E-01
 -1        34 2.29057E-01
 -1        95 2.29057E-01
 -1       105 2.29057E-01
 -1       134 2.29057E-01
 -1       222 2.29057E-01
 -3
    1PSTEP                        13           5           1          
  100CL  105 5.00000E-05           8                     1    5           1
 -4  DISP        4    1
 -5  D1          1    2    1    0
 -5  D2          1    2    2    0
 -5  D3          1    2    3    0
 -5  ALL         1    2    0    0    1ALL
 -1         2 0.00000E+00 0.00000E+00 0.00000E+00
 -1        10 6.61997E-02 0.00000E+00 0.00000E+00
 -1        13-1.43567E-03-6.61934E-02 0.00000E+00
 -1        34-7.69590E-03 7.61164E-03 3.28668E-01
 -1        95 6.47805E-02-6.62090E-02 0.00000E+00
 -1       105 5.85203E-02 7.59605E-03 3.28644E-01
 -1       134-9.11505E-03-5.85977E-02 3.28645E-01
 -1       222 5.71012E-02-5.86132E-02 3.28622E-01
 -3
    1PSTEP                        14           5           1          
  100CL  105 5.00000E-05           8                     1    5           1
 -4  STRESS      6    1
 -5  SXX         1    4    1    1
 -5  SYY         1    4    2    2
 -5  SZZ         1    4    3    3
 -5  SXY         1    4    1    2
 -5  SYZ         1    4    2    3
 -5  SZX         1    4    3    1
 -1         2 3.50117E-01 3.35830E-01 5.71422E+01-2.99660E-01 1.17161E+00-1.22074E+00
 -1        10 3.50117E-01 3.35830E-01 5.71422E+01-2.99660E-01 1.17161E+00-1.22074E+00
 -1        13 3.50117E-01 3.35830E-01 5.71422E+01-2.99660E-01 1.17161E+00-1.22074E+00
 -1        34 3.50117E-01 3.35830E-01 5.71422E+01-2.99660E-01 1.17161E+00-1.22074E+00
 -1        95 3.50117E-01 3.35830E-01 5.71422E+01-2.99660E-01 1.17161E+00-1.22074E+00
 -1       105 3.50117E-01 3.35830E-01 5.71422E+01-2.99660E-01 1.17161E+00-1.22074E+00
 -1       134 3.50117E-01 3.35830E-01 5.71422E+01-2.99660E-01 1.17161E+00-1.22074E+00
 -1       222 3.50117E-01 3.35830E-01 5.71422E+01-2.99660E-01 1.17161E+00-1.22074E+00
 -3
    1PSTEP                        15           5           1          
  100CL  105 5.00000E-05           8                     1    5           1
 -4  PE          1    1
 -5  PE          1    1    0    0
 -1         2 2.84386E-01
 -1        10 2.84386E-01
 -1        13 2.84386E-01
 -1        34 2.84386E-01
 -1        95 2.84386E-01
 -1       105 2.84386E-01
 -1       134 2.84386E-01
 -1       222 2.84386E-01
 -3
    1PSTEP                        16           6           1          
  100CL  106 6.50000E-05           8                     1    6           1
 -4  DISP        4    1
 -5  D1          1    2    1    0
 -5  D2          1    2    2    0
 -5  D3          1    2    3    0
 -5  ALL         1    2    0    0    1ALL
 -1         2 0.00000E+00 0.00000E+00 0.00000E+00
 -1        10 9.12505E-02 0.00000E+00 0.00000E+00
 -1        13-1.09885E-03-9.12542E-02 0.00000E+00
 -1        34-3.59021E-03 3.20984E-03 4.96433E-01
 -1        95 9.01455E-02-9.12489E-02 0.00000E+00
 -1       105 8.76542E-02 3.21513E-03 4.96451E-01
 -1       134-4.69518E-03-8.80382E-02 4.96452E-01
 -1       222 8.65492E-02-8.80329E-02 4.96470E-01
 -3
    1PSTEP                        17           6           1          
  100CL  106 6.50000E-05           8                     1    6           1
 -4  STRESS      6    1
 -5  SXX         1    4    1    1
 -5  SYY         1    4    2    2
 -5  SZZ         1    4    3    3
 -5  SXY         1    4    1    2
 -5  SYZ         1    4    2    3
 -5  SZX         1    4    3    1
 -1         2-1.70860E-01-1.82285E-01 8.04640E+01 1.20627E-01-6.73051E-01 6.18587E-01
 -1        10-1.70860E-01-1.82285E-01 8.04640E+01 1.20627E-01-6.73051E-01 6.18587E-01
 -1        13-1.70860E-01-1.82285E-01 8.04640E+01 1.20627E-01-6.73051E-01 6.18587E-01
 -1        34-1.70860E-01-1.82285E-01 8.04640E+01 1.20627E-01-6.73051E-01 6.18587E-01
 -1        95-1.70860E-01-1.82285E-01 8.04640E+01 1.20627E-01-6.73051E-01 6.18587E-01
 -1       105-1.70860E-01-1.82285E-01 8.04640E+01 1.20627E-01-6.73051E-01 6.18587E-01
 -1       134-1.70860E-01-1.82285E-01 8.04640E+01 1.20627E-01-6.73051E-01 6.18587E-01
 -1       222-1.70860E-01-1.82285E-01 8.04640E+01 1.20627E-01-6.73051E-01 6.18587E-01
 -3
    1PSTEP                        18           6           1          
  100CL  106 6.50000E-05           8                     1    6           1
 -4  PE          1    1
 -5  PE          1    1    0    0
 -1         2 4.03282E-01
 -1        10 4.03282E-01
 -1        13 4.03282E-01
 -1        34 4.03282E-01
 -1        95 4.03282E-01
 -1       105 4.03282E-01
 -1       134 4.03282E-01
 -1       222 4.03282E-01
 -3
    1PSTEP                        19           7           1          
  100CL  107 8.00000E-05           8                     1    7           1
 -4  DISP        4    1
 -5  D1          1    2    1    0
 -5  D2          1    2    2    0
 -5  D3          1    2    3    0
 -5  ALL         1    2    0    0    1ALL
 -1         2 0.00000E+00 0.00000E+00 0.00000E+00
 -1        10 1.07822E-01 0.00000E+00 0.00000E+00
 -1        13-8.95462E-04-1.07815E-01 0.00000E+00
 -1        34-8.91145E-04 9.61497E-04 6.25567E-01
 -1        95 1.06921E-01-1.07809E-01 0.00000E+00
 -1       105 1.06926E-01 9.67673E-04 6.25581E-01
 -1       134-1.79204E-03-1.06848E-01 6.25579E-01
 -1       222 1.06025E-01-1.06842E-01 6.25593E-01
 -3
    1PSTEP                        20           7           1          
  100CL  107 8.00000E-05           8                     1    7           1
 -4  STRESS      6    1
 -5  SXX         1    4    1    1
 -5  SYY         1    4    2    2
 -5  SZZ         1    4    3    3
 -5  SXY         1    4    1    2
 -5  SYZ         1    4    2    3
 -5  SZX         1    4    3    1
 -1         2-1.42462E-01-1.19907E-01 9.70611E+01 1.57148E-01-5.44326E-01 6.54431E-01
 -1        10-1.42462E-01-1.19907E-01 9.70611E+01 1.57148E-01-5.44326E-01 6.54431E-01
 -1        13-1.42462E-01-1.19907E-01 9.70611E+01 1.57148E-01-5.44326E-01 6.54431E-01
 -1        34-1.42462E-01-1.19907E-01 9.70611E+01 1.57148E-01-5.44326E-01 6.54431E-01
 -1        95-1.42462E-01-1.19907E-01 9.70611E+01 1.57148E-01-5.44326E-01 6.54431E-01
 -1       105-1.42462E-01-1.19907E-01 9.70611E+01 1.57148E-01-5.44326E-01 6.54431E-01
 -1       134-1.42462E-01-1.19907E-01 9.70611E+01 1.57148E-01-5.44326E-01 6.54431E-01
 -1       222-1.42462E-01-1.19907E-01 9.70611E+01 1.57148E-01-5.44326E-01 6.54431E-01
 -3
    1PSTEP                        21           7           1          
  100CL  107 8.00000E-05           8                     1    7           1
 -4  PE          1    1
 -5  PE          1    1    0    0
 -1         2 4.86019E-01
 -1        10 4.86019E-01
 -1        13 4.86019E-01
 -1        34 4.86019E-01
 -1        95 4.86019E-01
 -1       105 4.86019E-01
 -1       134 4.86019E-01
 -1       222 4.86019E-01
 -3
    1PSTEP                        22           8           1          
  100CL  108 8.37500E-05           8                     1    8           1
 -4  DISP        4    1
 -5  D1          1    2    1    0
 -5  D2          1    2    2    0
 -5  D3          1    2    3    0
 -5  ALL         1    2    0    0    1ALL
 -1         2 0.00000E+00 0.00000E+00 0.00000E+00
 -1        10 1.10251E-01 0.00000E+00 0.00000E+00
 -1        13-9.69380E-04-1.10243E-01 0.00000E+00
 -1        34-2.06709E-03 2.10534E-03 6.46049E-01
 -1        95 1.09293E-01-1.10257E-01 0.00000E+00
 -1       105 1.08196E-01 2.09219E-03 6.46021E-01
 -1       134-3.02429E-03-1.08150E-01 6.46022E-01
 -1       222 1.07239E-01-1.08164E-01 6.45994E-01
 -3
    1PSTEP                        23           8           1          
  100CL  108 8.37500E-05           8                     1    8           1
 -4  STRESS      6    1
 -5  SXX         1    4    1    1
 -5  SYY         1    4    2    2
 -5  SZZ         1    4    3    3
 -5  SXY         1    4    1    2
 -5  SYZ         1    4    2    3
 -5  SZX         1    4    3    1
 -1         2 3.39338E-01 3.30405E-01 9.99615E+01-3.43607E-01 1.56361E+00-1.59957E+00
 -1        10 3.39338E-01 3.30405E-01 9.99615E+01-3.43607E-01 1.56361E+00-1.59957E+00
 -1        13 3.39338E-01 3.30405E-01 9.99615E+01-3.43607E-01 1.56361E+00-1.59957E+00
 -1        34 3.39338E-01 3.30405E-01 9.99615E+01-3.43607E-01 1.56361E+00-1.59957E+00
 -1        95 3.39338E-01 3.30405E-01 9.99615E+01-3.43607E-01 1.56361E+00-1.59957E+00
 -1       105 3.39338E-01 3.30405E-01 9.99615E+01-3.43607E-01 1.56361E+00-1.59957E+00
 -1       134 3.39338E-01 3.30405E-01 9.99615E+01-3.43607E-01 1.56361E+00-1.59957E+00
 -1       222 3.39338E-01 3.30405E-01 9.99615E+01-3.43607E-01 1.56361E+00-1.59957E+00
 -3
    1PSTEP                        24           8           1          
  100CL  108 8.37500E-05           8                     1    8           1
 -4  PE          1    1
 -5  PE          1    1    0    0
 -1         2 4.98518E-01
 -1        10 4.98518E-01
 -1        13 4.98518E-01
 -1        34 4.98518E-01
 -1        95 4.98518E-01
 -1       105 4.98518E-01
 -1       134 4.98518E-01
 -1       222 4.98518E-01
 -3
    1PSTEP                        25           9           1          
  100CL  109 8.75000E-05           8                     1    9           1
 -4  DISP        4    1
 -5  D1          1    2    1    0
 -5  D2          1    2    2    0
 -5  D3          1    2    3    0
 -5  ALL         1    2    0    0    1ALL
 -1         2 0.00000E+00 0.00000E+00 0.00000E+00
 -1        10 1.12908E-01 0.00000E+00 0.00000E+00
 -1        13-9.21074E-04-1.12903E-01 0.00000E+00
 -1        34-1.71662E-03 1.68292E-03 6.68599E-01
 -1        95 1.11983E-01-1.12899E-01 0.00000E+00
 -1       105 1.11188E-01 1.68677E-03 6.68606E-01
 -1       134-2.64067E-03-1.11216E-01 6.68608E-01
 -1       222 1.10264E-01-1.11212E-01 6.68616E-01
 -3
    1PSTEP                        26           9           1          
  100CL  109 8.75000E-05           8                     1    9           1
 -4  STRESS      6    1
 -5  SXX         1    4    1    1
 -5  SYY         1    4    2    2
 -5  SZZ         1    4    3    3
 -5  SXY         1    4    1    2
 -5  SYZ         1    4    2    3
 -5  SZX         1    4    3    1
 -1         2-9.00720E-02-1.11513E-01 1.02324E+02 1.05759E-01-3.96533E-01 3.00942E-01
 -1        10-9.00720E-02-1.11513E-01 1.02324E+02 1.05759E-01-3.96533E-01 3.00942E-01
 -1        13-9.00720E-02-1.11513E-01 1.02324E+02 1.05759E-01-3.96533E-01 3.00942E-01
 -1        34-9.00720E-02-1.11513E-01 1.02324E+02 1.05759E-01-3.96533E-01 3.00942E-01
 -1        95-9.00720E-02-1.11513E-01 1.02324E+02 1.05759E-01-3.96533E-01 3.00942E-01
 -1       105-9.00720E-02-1.11513E-01 1.02324E+02 1.05759E-01-3.96533E-01 3.00942E-01
 -1       134-9.00720E-02-1.11513E-01 1.02324E+02 1.05759E-01-3.96533E-01 3.00942E-01
 -1       222-9.00720E-02-1.11513E-01 1.02324E+02 1.05759E-01-3.96533E-01 3.00942E-01
 -3
    1PSTEP                        27           9           1          
  100CL  109 8.75000E-05           8                     1    9           1
 -4  PE          1    1
 -5  PE          1    1    0    0
 -1         2 5.12141E-01
 -1        10 5.12141E-01
 -1        13 5.12141E-01
 -1        34 5.12141E-01
 -1        95 5.12141E-01
 -1       105 5.12141E-01
 -1       134 5.12141E-01
 -1       222 5.12141E-01
 -3
    1PSTEP                        28          10           1          
  100CL  110 9.31250E-05           8                     1   10           1
 -4  DISP        4    1
 -5  D1          1    2    1    0
 -5  D2          1    2    2    0
 -5  D3          1    2    3    0
 -5  ALL         1    2    0    0    1ALL
 -1         2 0.00000E+00 0.00000E+00 0.00000E+00
 -1        10 1.18435E-01 0.00000E+00 0.00000E+00
 -1        13-9.32857E-04-1.18426E-01 0.00000E+00
 -1        34-1.52031E-03 1.60933E-03 7.17327E-01
 -1        95 1.17504E-01-1.18428E-01 0.00000E+00
 -1       105 1.16916E-01 1.60748E-03 7.17331E-01
 -1       134-2.45193E-03-1.16819E-01 7.17330E-01
 -1       222 1.15985E-01-1.16820E-01 7.17334E-01
 -3
    1PSTEP                        29          10           1          
  100CL  110 9.31250E-05           8                     1   10           1
 -4  STRESS      6    1
 -5  SXX         1    4    1    1
 -5  SYY         1    4    2    2
 -5  SZZ         1    4    3    3
 -5  SXY         1    4    1    2
 -5  SYZ         1    4    2    3
 -5  SZX         1    4    3    1
 -1         2 7.97428E-02 1.03001E-01 1.08273E+02-5.62444E-02-3.90170E-02 1.17525E-01
 -1        10 7.97428E-02 1.03001E-01 1.08273E+02-5.62444E-02-3.90170E-02 1.17525E-01
 -1        13 7.97428E-02 1.03001E-01 1.08273E+02-5.62444E-02-3.90170E-02 1.17525E-01
 -1        34 7.97428E-02 1.03001E-01 1.08273E+02-5.62444E-02-3.90170E-02 1.17525E-01
 -1        95 7.97428E-02 1.03001E-01 1.08273E+02-5.62444E-02-3.90170E-02 1.17525E-01
 -1       105 7.97428E-02 1.03001E-01 1.08273E+02-5.62444E-02-3.90170E-02 1.17525E-01
 -1       134 7.97428E-02 1.03001E-01 1.08273E+02-5.62444E-02-3.90170E-02 1.17525E-01
 -1       222 7.97428E-02 1.03001E-01 1.08273E+02-5.62444E-02-3.90170E-02 1.17525E-01
 -3
    1PSTEP                        30          10           1          
  100CL  110 9.31250E-05           8                     1   10           1
 -4  PE          1    1
 -5  PE          1    1    0    0
 -1         2 5.40909E-01
 -1        10 5.40909E-01
 -1        13 5.40909E-01
 -1        34 5.40909E-01
 -1        95 5.40909E-01
 -1       105 5.40909E-01
 -1       134 5.40909E-01
 -1       222 5.40909E-01
 -3
    1PSTEP                        31          11           1          
  100CL  111 1.01563E-04           8                     1   11           1
 -4  DISP        4    1
 -5  D1          1    2    1    0
 -5  D2          1    2    2    0
 -5  D3          1    2    3    0
 -5  ALL         1    2    0    0    1ALL
 -1         2 0.00000E+00 0.00000E+00 0.00000E+00
 -1        10 1.29413E-01 0.00000E+00 0.00000E+00
 -1        13-9.14550E-04-1.29409E-01 0.00000E+00
 -1        34-2.73638E-03 2.78832E-03 8.20630E-01
 -1        95 1.28500E-01-1.29409E-01 0.00000E+00
 -1       105 1.26678E-01 2.78757E-03 8.20625E-01
 -1       134-3.64978E-03-1.26621E-01 8.20625E-01
 -1       222 1.25765E-01-1.26622E-01 8.20620E-01
 -3
    1PSTEP                        32          11           1          
  100CL  111 1.01563E-04           8                     1   11           1
 -4  STRESS      6    1
 -5  SXX         1    4    1    1
 -5  SYY         1    4    2    2
 -5  SZZ         1    4    3    3
 -5  SXY         1    4    1    2
 -5  SYZ         1    4    2    3
 -5  SZX         1    4    3    1
 -1         2-3.05389E-02-4.43004E-02 1.19816E+02-1.75742E-02 4.65729E-01-4.76084E-01
 -1        10-3.05389E-02-4.43004E-02 1.19816E+02-1.75742E-02 4.65729E-01-4.76084E-01
 -1        13-3.05389E-02-4.43004E-02 1.19816E+02-1.75742E-02 4.65729E-01-4.76084E-01
 -1        34-3.05389E-02-4.43004E-02 1.19816E+02-1.75742E-02 4.65729E-01-4.76084E-01
 -1        95-3.05389E-02-4.43004E-02 1.19816E+02-1.75742E-02 4.65729E-01-4.76084E-01
 -1       105-3.05389E-02-4.43004E-02 1.19816E+02-1.75742E-02 4.65729E-01-4.76084E-01
 -1       134-3.05389E-02-4.43004E-02 1.19816E+02-1.75742E-02 4.65729E-01-4.76084E-01
 -1       222-3.05389E-02-4.43004E-02 1.19816E+02-1.75742E-02 4.65729E-01-4.76084E-01
 -3
    1PSTEP                        33          11           1          
  100CL  111 1.01563E-04           8                     1   11           1
 -4  PE          1    1
 -5  PE          1    1    0    0
 -1         2 5.99293E-01
 -1        10 5.99293E-01
 -1        13 5.99293E-01
 -1        34 5.99293E-01
 -1        95 5.99293E-01
 -1       105 5.99293E-01
 -1       134 5.99293E-01
 -1       222 5.99293E-01
 -3
    1PSTEP                        34          12           1          
  100CL  112 1.03672E-04           8                     1   12           1
 -4  DISP        4    1
 -5  D1          1    2    1    0
 -5  D2          1    2    2    0
 -5  D3          1    2    3    0
 -5  ALL         1    2    0    0    1ALL
 -1         2 0.00000E+00 0.00000E+00 0.00000E+00
 -1        10 1.32294E-01 0.00000E+00 0.00000E+00
 -1        13-9.13512E-04-1.32288E-01 0.00000E+00
 -1        34-2.68775E-03 2.69081E-03 8.49257E-01
 -1        95 1.31381E-01-1.32289E-01 0.00000E+00
 -1       105 1.29607E-01 2.68979E-03 8.49259E-01
 -1       134-3.60031E-03-1.29598E-01 8.49260E-01
 -1       222 1.28694E-01-1.29599E-01 8.49263E-01
 -3
    1PSTEP                        35          12           1          
  100CL  112 1.03672E-04           8                     1   12           1
 -4  STRESS      6    1
 -5  SXX         1    4    1    1
 -5  SYY         1    4    2    2
 -5  SZZ         1    4    3    3
 -5  SXY         1    4    1    2
 -5  SYZ         1    4    2    3
 -5  SZX         1    4    3    1
 -1         2 6.44330E-02 8.00317E-02 1.23050E+02-4.25678E-02-3.42887E-02-2.45414E-02
 -1        10 6.44330E-02 8.00317E-02 1.23050E+02-4.25678E-02-3.42887E-02-2.45414E-02
 -1        13 6.44330E-02 8.00317E-02 1.23050E+02-4.25678E-02-3.42887E-02-2.45414E-02
 -1        34 6.44330E-02 8.00317E-02 1.23050E+02-4.25678E-02-3.42887E-02-2.45414E-02
 -1        95 6.44330E-02 8.00317E-02 1.23050E+02-4.25678E-02-3.42887E-02-2.45414E-02
 -1       105 6.44330E-02 8.00317E-02 1.23050E+02-4.25678E-02-3.42887E-02-2.45414E-02
 -1       134 6.44330E-02 8.00317E-02 1.23050E+02-4.25678E-02-3.42887E-02-2.45414E-02
 -1       222 6.44330E-02 8.00317E-02 1.23050E+02-4.25678E-02-3.42887E-02-2.45414E-02
 -3
    1PSTEP                        36          12           1          
  100CL  112 1.03672E-04           8                     1   12           1
 -4  PE          1    1
 -5  PE          1    1    0    0
 -1         2 6.14891E-01
 -1        10 6.14891E-01
 -1        13 6.14891E-01
 -1        34 6.14891E-01
 -1        95 6.14891E-01
 -1       105 6.14891E-01
 -1       134 6.14891E-01
 -1       222 6.14891E-01
 -3
    1PSTEP                        37          13           1          
  100CL  113 1.05781E-04           8                     1   13           1
 -4  DISP        4    1
 -5  D1          1    2    1    0
 -5  D2          1    2    2    0
 -5  D3          1    2    3    0
 -5  ALL         1    2    0    0    1ALL
 -1         2 0.00000E+00 0.00000E+00 0.00000E+00
 -1        10 1.34854E-01 0.00000E+00 0.00000E+00
 -1        13-8.85977E-04-1.34851E-01 0.00000E+00
 -1        34-2.38149E-03 2.35636E-03 8.75265E-01
 -1        95 1.33965E-01-1.34848E-01 0.00000E+00
 -1       105 1.32469E-01 2.35951E-03 8.75272E-01
 -1       134-3.27102E-03-1.32491E-01 8.75273E-01
 -1       222 1.31580E-01-1.32488E-01 8.75281E-01
 -3
    1PSTEP                        38          13           1          
  100CL  113 1.05781E-04           8                     1   13           1
 -4  STRESS      6    1
 -5  SXX         1    4    1    1
 -5  SYY         1    4    2    2
 -5  SZZ         1    4    3    3
 -5  SXY         1    4    1    2
 -5  SYZ         1    4    2    3
 -5  SZX         1    4    3    1
 -1         2-2.03178E-01-2.46567E-01 1.25542E+02 1.16781E-01-3.96383E-01 3.54209E-01
 -1        10-2.03178E-01-2.46567E-01 1.25542E+02 1.16781E-01-3.96383E-01 3.54209E-01
 -1        13-2.03178E-01-2.46567E-01 1.25542E+02 1.16781E-01-3.96383E-01 3.54209E-01
 -1        34-2.03178E-01-2.46567E-01 1.25542E+02 1.16781E-01-3.96383E-01 3.54209E-01
 -1        95-2.03178E-01-2.46567E-01 1.25542E+02 1.16781E-01-3.96383E-01 3.54209E-01
 -1       105-2.03178E-01-2.46567E-01 1.25542E+02 1.16781E-01-3.96383E-01 3.54209E-01
 -1       134-2.03178E-01-2.46567E-01 1.25542E+02 1.16781E-01-3.96383E-01 3.54209E-01
 -1       222-2.03178E-01-2.46567E-01 1.25542E+02 1.16781E-01-3.96383E-01 3.54209E-01
 -3
    1PSTEP                        39          13           1          
  100CL  113 1.05781E-04           8                     1   13           1
 -4  PE          1    1
 -5  PE          1    1    0    0
 -1         2 6.28854E-01
 -1        10 6.28854E-01
 -1        13 6.28854E-01