    1C
    1UUSER                                                              
    1UDATE              19.july.2022                                    
    1UTIME              21:26:59                                        
    1UHOST                                                              
    1UPGM               CalculiX                                        
    1UVERSION           Version DEVELOPMENT                             
    1UCOMPILETIME       Tue Jul 19 21:11:38 CEST 2022                    
    1UDIR                                                               
    1UDBN                                                               
    1UMAT    1GUMMI                                                     
    1UMAT    2CONTACT                                                   
    2C                          1037                                     1
 -1         1 0.00000E+00 0.00000E+00 0.00000E+00
 -1         2 0.00000E+00 3.53553E+00-3.53553E+00
 -1         3 0.00000E+00 7.33520E+00-3.04064E+00
 -1         4 0.00000E+00 5.00000E+00 0.00000E+00
 -1         5 5.00000E+00 0.00000E+00 0.00000E+00
 -1         6 4.99549E+00 3.53235E+00-3.53235E+00
 -1         7 4.75764E+00 7.13249E+00-2.95837E+00
 -1         8 4.99549E+00 4.99549E+00 2.48814E-16
 -1         9 0.00000E+00 1.10436E+01-2.77860E+00
 -1        10 0.00000E+00 1.00000E+01 0.00000E+00
 -1        11 4.53767E+00 1.07000E+01-2.67106E+00
 -1        12 4.80253E+00 9.95350E+00 4.88886E-16
 -1        13 0.00000E+00 1.50494E+01-3.18000E+00
 -1        14 0.00000E+00 1.50000E+01 0.00000E+00
 -1        15 4.23956E+00 1.45980E+01-3.05982E+00
 -1        16 4.43205E+00 1.48380E+01 7.11812E-16
 -1        17 0.00000E+00 1.96157E+01-3.90181E+00
 -1        18 0.00000E+00 2.00000E+01 0.00000E+00
 -1        19 3.90181E+00 1.91805E+01-3.80705E+00
 -1        20 3.90181E+00 1.96157E+01 9.09845E-16
 -1        21 0.00000E+00 7.07107E+00-7.07107E+00
 -1        22 0.00000E+00 9.76971E+00-5.85098E+00
 -1        23 4.80253E+00 7.03819E+00-7.03819E+00
 -1        24 4.53756E+00 9.45108E+00-5.68495E+00
 -1        25 0.00000E+00 1.17880E+01-4.88769E+00
 -1        26 4.40150E+00 1.13353E+01-4.70040E+00
 -1        27 0.00000E+00 1.45533E+01-6.03355E+00
 -1        28 4.17505E+00 1.40398E+01-5.81898E+00
 -1        29 0.00000E+00 1.84776E+01-7.65367E+00
 -1        30 3.90181E+00 1.80466E+01-7.47514E+00
 -1        31 0.00000E+00 1.28861E+01-8.40142E+00
 -1        32 4.23924E+00 1.24835E+01-8.16338E+00
 -1        33 0.00000E+00 1.66294E+01-1.11114E+01
 -1        34 3.90181E+00 1.62546E+01-1.08706E+01
 -1        35 0.00000E+00 1.06066E+01-1.06066E+01
 -1        36 4.43205E+00 1.04920E+01-1.04920E+01
 -1        37 0.00000E+00 1.41421E+01-1.41421E+01
 -1        38 3.90181E+00 1.38704E+01-1.38704E+01
 -1        39 1.00000E+01 0.00000E+00 0.00000E+00
 -1        40 9.95350E+00 3.39590E+00-3.39590E+00
 -1        41 9.47865E+00 6.77942E+00-2.81121E+00
 -1        42 9.95350E+00 4.80253E+00 4.88886E-16
 -1        43 9.02400E+00 1.01360E+01-2.52004E+00
 -1        44 9.53010E+00 9.53010E+00 9.60290E-16
 -1        45 8.39046E+00 1.37800E+01-2.87764E+00
 -1        46 8.75165E+00 1.41106E+01 1.39740E-15
 -1        47 7.65367E+00 1.80466E+01-3.57904E+00
 -1        48 7.65367E+00 1.84776E+01 1.78473E-15
 -1        49 9.53010E+00 6.73880E+00-6.73880E+00
 -1        50 9.02377E+00 8.94630E+00-5.39001E+00
 -1        51 8.75678E+00 1.06968E+01-4.43342E+00
 -1        52 8.26795E+00 1.32218E+01-5.47794E+00
 -1        53 7.65367E+00 1.69722E+01-7.03010E+00
 -1        54 8.38893E+00 1.17770E+01-7.71065E+00
 -1        55 7.65367E+00 1.52916E+01-1.02301E+01
 -1        56 8.75165E+00 9.97770E+00-9.97770E+00
 -1        57 7.65367E+00 1.30656E+01-1.30656E+01
 -1        58 1.50000E+01 0.00000E+00 0.00000E+00
 -1        59 1.48380E+01 3.13393E+00-3.13393E+00
 -1        60 1.41591E+01 6.26223E+00-2.59276E+00
 -1        61 1.48380E+01 4.43205E+00 7.11812E-16
 -1        62 1.34500E+01 9.32876E+00-2.31785E+00
 -1        63 1.41106E+01 8.75165E+00 1.39740E-15
 -1        64 1.24058E+01 1.25665E+01-2.62529E+00
 -1        65 1.28506E+01 1.28506E+01 2.03155E-15
 -1        66 1.11114E+01 1.62546E+01-3.22550E+00
 -1        67 1.11114E+01 1.66294E+01 2.59102E-15
 -1        68 1.41106E+01 6.18835E+00-6.18835E+00
 -1        69 1.34503E+01 8.23409E+00-4.95338E+00
 -1        70 1.30666E+01 9.84420E+00-4.07308E+00
 -1        71 1.22428E+01 1.20651E+01-4.99365E+00
 -1        72 1.11114E+01 1.52916E+01-6.33400E+00
 -1        73 1.23973E+01 1.07407E+01-7.02385E+00
 -1        74 1.11114E+01 1.37745E+01-9.21298E+00
 -1        75 1.28506E+01 9.08678E+00-9.08678E+00
 -1        76 1.11114E+01 1.17588E+01-1.17588E+01
 -1        77 2.00000E+01 0.00000E+00 0.00000E+00
 -1        78 1.96157E+01 2.75899E+00-2.75899E+00
 -1        79 1.88995E+01 5.66462E+00-2.33493E+00
 -1        80 1.96157E+01 3.90181E+00 9.09845E-16
 -1        81 1.79340E+01 8.41170E+00-2.09121E+00
 -1        82 1.84776E+01 7.65367E+00 1.78473E-15
 -1        83 1.63896E+01 1.11199E+01-2.33551E+00
 -1        84 1.66294E+01 1.11114E+01 2.59102E-15
 -1        85 1.41421E+01 1.38704E+01-2.75899E+00
 -1        86 1.41421E+01 1.41421E+01 3.29774E-15
 -1        87 1.84776E+01 5.41196E+00-5.41196E+00
 -1        88 1.79443E+01 7.42243E+00-4.44803E+00
 -1        89 1.74334E+01 8.89622E+00-3.66551E+00
 -1        90 1.62074E+01 1.07255E+01-4.42687E+00
 -1        91 1.41421E+01 1.30656E+01-5.41196E+00
 -1        92 1.63398E+01 9.50707E+00-6.18565E+00
 -1        93 1.41421E+01 1.17588E+01-7.85695E+00
 -1        94 1.66294E+01 7.85695E+00-7.85695E+00
 -1        95 1.41421E+01 1.00000E+01-1.00000E+01
 -1        96 0.00000E+00 3.06152E-16-5.00000E+00
 -1        97 0.00000E+00 3.03672E+00-7.33683E+00
 -1        98 4.99549E+00 2.93354E-16-4.99549E+00
 -1        99 4.75764E+00 2.95155E+00-7.13531E+00
 -1       100 0.00000E+00 5.84423E+00-9.77377E+00
 -1       101 4.53767E+00 5.67730E+00-9.45474E+00
 -1       102 0.00000E+00 8.39291E+00-1.28901E+01
 -1       103 4.23956E+00 8.15874E+00-1.24860E+01
 -1       104 0.00000E+00 1.11114E+01-1.66294E+01
 -1       105 3.90181E+00 1.08706E+01-1.62546E+01
 -1       106 0.00000E+00 6.12303E-16-1.00000E+01
 -1       107 0.00000E+00 2.77096E+00-1.10455E+01
 -1       108 4.80253E+00 5.84852E-16-9.95350E+00
 -1       109 4.53756E+00 2.66305E+00-1.07028E+01
 -1       110 0.00000E+00 4.87926E+00-1.17915E+01
 -1       111 4.40150E+00 4.69157E+00-1.13389E+01
 -1       112 0.00000E+00 6.02435E+00-1.45571E+01
 -1       113 4.17505E+00 5.81301E+00-1.40423E+01
 -1       114 0.00000E+00 7.65367E+00-1.84776E+01
 -1       115 3.90181E+00 7.47514E+00-1.80466E+01
 -1       116 0.00000E+00 3.17118E+00-1.50526E+01
 -1       117 4.23924E+00 3.05476E+00-1.45995E+01
 -1       118 0.00000E+00 3.90181E+00-1.96157E+01
 -1       119 3.90181E+00 3.80705E+00-1.91805E+01
 -1       120 0.00000E+00 9.18455E-16-1.50000E+01
 -1       121 4.43205E+00 8.72711E-16-1.48380E+01
 -1       122 0.00000E+00 1.22461E-15-2.00000E+01
 -1       123 3.90181E+00 1.15529E-15-1.96157E+01
 -1       124 9.95350E+00 2.69456E-16-4.80253E+00
 -1       125 9.47865E+00 2.80595E+00-6.78160E+00
 -1       126 9.02400E+00 5.38528E+00-8.94915E+00
 -1       127 8.39046E+00 7.70911E+00-1.17787E+01
 -1       128 7.65367E+00 1.02301E+01-1.52916E+01
 -1       129 9.53010E+00 5.35202E-16-9.53010E+00
 -1       130 9.02377E+00 2.51468E+00-1.01373E+01
 -1       131 8.75678E+00 4.42888E+00-1.06987E+01
 -1       132 8.26795E+00 5.47576E+00-1.32227E+01
 -1       133 7.65367E+00 7.03010E+00-1.69722E+01
 -1       134 8.38893E+00 2.87532E+00-1.37798E+01
 -1       135 7.65367E+00 3.57904E+00-1.80466E+01
 -1       136 8.75165E+00 7.93669E-16-1.41106E+01
 -1       137 7.65367E+00 1.04157E-15-1.84776E+01
 -1       138 1.48380E+01 2.35552E-16-4.43205E+00
 -1       139 1.41591E+01 2.59471E+00-6.26142E+00
 -1       140 1.34500E+01 4.95746E+00-8.23539E+00
 -1       141 1.24058E+01 7.02951E+00-1.07422E+01
 -1       142 1.11114E+01 9.21298E+00-1.37745E+01
 -1       143 1.41106E+01 4.65539E-16-8.75165E+00
 -1       144 1.34503E+01 2.31981E+00-9.32495E+00
 -1       145 1.30666E+01 4.08080E+00-9.84101E+00
 -1       146 1.22428E+01 5.00025E+00-1.20623E+01
 -1       147 1.11114E+01 6.33400E+00-1.52916E+01
 -1       148 1.23973E+01 2.62825E+00-1.25615E+01
 -1       149 1.11114E+01 3.22550E+00-1.62546E+01
 -1       150 1.28506E+01 6.84607E-16-1.28506E+01
 -1       151 1.11114E+01 8.87824E-16-1.66294E+01
 -1       152 1.96157E+01 1.93119E-16-3.90181E+00
 -1       153 1.88995E+01 2.35444E+00-5.65653E+00
 -1       154 1.79340E+01 4.46926E+00-7.42668E+00
 -1       155 1.63896E+01 6.21151E+00-9.51441E+00
 -1       156 1.41421E+01 7.85695E+00-1.17588E+01
 -1       157 1.84776E+01 3.78816E-16-7.65367E+00
 -1       158 1.79443E+01 2.10321E+00-8.39368E+00
 -1       159 1.74334E+01 3.69867E+00-8.88249E+00
 -1       160 1.62074E+01 4.45378E+00-1.07143E+01
 -1       161 1.41421E+01 5.41196E+00-1.30656E+01
 -1       162 1.63398E+01 2.34860E+00-1.10964E+01
 -1       163 1.41421E+01 2.75899E+00-1.38704E+01
 -1       164 1.66294E+01 5.49956E-16-1.11114E+01
 -1       165 1.41421E+01 6.99961E-16-1.41421E+01
 -1       166 0.00000E+00-3.53553E+00-3.53553E+00
 -1       167 0.00000E+00-3.04064E+00-7.33520E+00
 -1       168 4.99549E+00-3.53235E+00-3.53235E+00
 -1       169 4.75764E+00-2.95837E+00-7.13249E+00
 -1       170 0.00000E+00-2.77860E+00-1.10436E+01
 -1       171 4.53767E+00-2.67106E+00-1.07000E+01
 -1       172 0.00000E+00-3.18000E+00-1.50494E+01
 -1       173 4.23956E+00-3.05982E+00-1.45980E+01
 -1       174 0.00000E+00-3.90181E+00-1.96157E+01
 -1       175 3.90181E+00-3.80705E+00-1.91805E+01
 -1       176 0.00000E+00-7.07107E+00-7.07107E+00
 -1       177 0.00000E+00-5.85098E+00-9.76971E+00
 -1       178 4.80253E+00-7.03819E+00-7.03819E+00
 -1       179 4.53756E+00-5.68495E+00-9.45108E+00
 -1       180 0.00000E+00-4.88769E+00-1.17880E+01
 -1       181 4.40150E+00-4.70040E+00-1.13353E+01
 -1       182 0.00000E+00-6.03355E+00-1.45533E+01
 -1       183 4.17505E+00-5.81898E+00-1.40398E+01
 -1       184 0.00000E+00-7.65367E+00-1.84776E+01
 -1       185 3.90181E+00-7.47514E+00-1.80466E+01
 -1       186 0.00000E+00-8.40142E+00-1.28861E+01
 -1       187 4.23924E+00-8.16338E+00-1.24835E+01
 -1       188 0.00000E+00-1.11114E+01-1.66294E+01
 -1       189 3.90181E+00-1.08706E+01-1.62546E+01
 -1       190 0.00000E+00-1.06066E+01-1.06066E+01
 -1       191 4.43205E+00-1.04920E+01-1.04920E+01
 -1       192 0.00000E+00-1.41421E+01-1.41421E+01
 -1       193 3.90181E+00-1.38704E+01-1.38704E+01
 -1       194 9.95350E+00-3.39590E+00-3.39590E+00
 -1       195 9.47865E+00-2.81121E+00-6.77942E+00
 -1       196 9.02400E+00-2.52004E+00-1.01360E+01
 -1       197 8.39046E+00-2.87764E+00-1.37800E+01
 -1       198 7.65367E+00-3.57904E+00-1.80466E+01
 -1       199 9.53010E+00-6.73880E+00-6.73880E+00
 -1       200 9.02377E+00-5.39001E+00-8.94630E+00
 -1       201 8.75678E+00-4.43342E+00-1.06968E+01
 -1       202 8.26795E+00-5.47794E+00-1.32218E+01
 -1       203 7.65367E+00-7.03010E+00-1.69722E+01
 -1       204 8.38893E+00-7.71065E+00-1.17770E+01
 -1       205 7.65367E+00-1.02301E+01-1.52916E+01
 -1       206 8.75165E+00-9.97770E+00-9.97770E+00
 -1       207 7.65367E+00-1.30656E+01-1.30656E+01
 -1       208 1.48380E+01-3.13393E+00-3.13393E+00
 -1       209 1.41591E+01-2.59276E+00-6.26223E+00
 -1       210 1.34500E+01-2.31785E+00-9.32876E+00
 -1       211 1.24058E+01-2.62529E+00-1.25665E+01
 -1       212 1.11114E+01-3.22550E+00-1.62546E+01
 -1       213 1.41106E+01-6.18835E+00-6.18835E+00
 -1       214 1.34503E+01-4.95338E+00-8.23409E+00
 -1       215 1.30666E+01-4.07308E+00-9.84420E+00
 -1       216 1.22428E+01-4.99365E+00-1.20651E+01
 -1       217 1.11114E+01-6.33400E+00-1.52916E+01
 -1       218 1.23973E+01-7.02385E+00-1.07407E+01
 -1       219 1.11114E+01-9.21298E+00-1.37745E+01
 -1       220 1.28506E+01-9.08678E+00-9.08678E+00
 -1       221 1.11114E+01-1.17588E+01-1.17588E+01
 -1       222 1.96157E+01-2.75899E+00-2.75899E+00
 -1       223 1.88995E+01-2.33493E+00-5.66462E+00
 -1       224 1.79340E+01-2.09121E+00-8.41170E+00
 -1       225 1.63896E+01-2.33551E+00-1.11199E+01
 -1       226 1.41421E+01-2.75899E+00-1.38704E+01
 -1       227 1.84776E+01-5.41196E+00-5.41196E+00
 -1       228 1.79443E+01-4.44803E+00-7.42243E+00
 -1       229 1.74334E+01-3.66551E+00-8.89622E+00
 -1       230 1.62074E+01-4.42687E+00-1.07255E+01
 -1       231 1.41421E+01-5.41196E+00-1.30656E+01
 -1       232 1.63398E+01-6.18565E+00-9.50707E+00
 -1       233 1.41421E+01-7.85695E+00-1.17588E+01
 -1       234 1.66294E+01-7.85695E+00-7.85695E+00
 -1       235 1.41421E+01-1.00000E+01-1.00000E+01
 -1       236 0.00000E+00-5.00000E+00-6.12303E-16
 -1       237 0.00000E+00-7.33683E+00-3.03672E+00
 -1       238 4.99549E+00-4.99549E+00-5.99229E-16
 -1       239 4.75764E+00-7.13531E+00-2.95155E+00
 -1       240 0.00000E+00-9.77377E+00-5.84423E+00
 -1       241 4.53767E+00-9.45474E+00-5.67730E+00
 -1       242 0.00000E+00-1.28901E+01-8.39291E+00
 -1       243 4.23956E+00-1.24860E+01-8.15874E+00
 -1       244 0.00000E+00-1.66294E+01-1.11114E+01
 -1       245 3.90181E+00-1.62546E+01-1.08706E+01
 -1       246 0.00000E+00-1.00000E+01-1.22461E-15
 -1       247 0.00000E+00-1.10455E+01-2.77096E+00
 -1       248 4.80253E+00-9.95350E+00-1.19431E-15
 -1       249 4.53756E+00-1.07028E+01-2.66305E+00
 -1       250 0.00000E+00-1.17915E+01-4.87926E+00
 -1       251 4.40150E+00-1.13389E+01-4.69157E+00
 -1       252 0.00000E+00-1.45571E+01-6.02435E+00
 -1       253 4.17505E+00-1.40423E+01-5.81301E+00
 -1       254 0.00000E+00-1.84776E+01-7.65367E+00
 -1       255 3.90181E+00-1.80466E+01-7.47514E+00
 -1       256 0.00000E+00-1.50526E+01-3.17118E+00
 -1       257 4.23924E+00-1.45995E+01-3.05476E+00
 -1       258 0.00000E+00-1.96157E+01-3.90181E+00
 -1       259 3.90181E+00-1.91805E+01-3.80705E+00
 -1       260 0.00000E+00-1.50000E+01-1.83691E-15
 -1       261 4.43205E+00-1.48380E+01-1.78124E-15
 -1       262 0.00000E+00-2.00000E+01-2.44921E-15
 -1       263 3.90181E+00-1.96157E+01-2.35636E-15
 -1       264 9.95350E+00-4.80253E+00-5.63517E-16
 -1       265 9.47865E+00-6.78160E+00-2.80595E+00
 -1       266 9.02400E+00-8.94915E+00-5.38528E+00
 -1       267 8.39046E+00-1.17787E+01-7.70911E+00
 -1       268 7.65367E+00-1.52916E+01-1.02301E+01
 -1       269 9.53010E+00-9.53010E+00-1.11873E-15
 -1       270 9.02377E+00-1.01373E+01-2.51468E+00
 -1       271 8.75678E+00-1.06987E+01-4.42888E+00
 -1       272 8.26795E+00-1.32227E+01-5.47576E+00
 -1       273 7.65367E+00-1.69722E+01-7.03010E+00
 -1       274 8.38893E+00-1.37798E+01-2.87532E+00
 -1       275 7.65367E+00-1.80466E+01-3.57904E+00
 -1       276 8.75165E+00-1.41106E+01-1.65766E-15
 -1       277 7.65367E+00-1.84776E+01-2.17296E-15
 -1       278 1.48380E+01-4.43205E+00-5.06928E-16
 -1       279 1.41591E+01-6.26142E+00-2.59471E+00
 -1       280 1.34500E+01-8.23539E+00-4.95746E+00
 -1       281 1.24058E+01-1.07422E+01-7.02951E+00
 -1       282 1.11114E+01-1.37745E+01-9.21298E+00
 -1       283 1.41106E+01-8.75165E+00-1.00140E-15
 -1       284 1.34503E+01-9.32495E+00-2.31981E+00
 -1       285 1.30666E+01-9.84101E+00-4.08080E+00
 -1       286 1.22428E+01-1.20623E+01-5.00025E+00
 -1       287 1.11114E+01-1.52916E+01-6.33400E+00
 -1       288 1.23973E+01-1.25615E+01-2.62825E+00
 -1       289 1.11114E+01-1.62546E+01-3.22550E+00
 -1       290 1.28506E+01-1.28506E+01-1.47146E-15
 -1       291 1.11114E+01-1.66294E+01-1.90605E-15
 -1       292 1.96157E+01-3.90181E+00-4.32028E-16
 -1       293 1.88995E+01-5.65653E+00-2.35444E+00
 -1       294 1.79340E+01-7.42668E+00-4.46926E+00
 -1       295 1.63896E+01-9.51441E+00-6.21151E+00
 -1       296 1.41421E+01-1.17588E+01-7.85695E+00
 -1       297 1.84776E+01-7.65367E+00-8.47453E-16
 -1       298 1.79443E+01-8.39368E+00-2.10321E+00
 -1       299 1.74334E+01-8.88249E+00-3.69867E+00
 -1       300 1.62074E+01-1.07143E+01-4.45378E+00
 -1       301 1.41421E+01-1.30656E+01-5.41196E+00
 -1       302 1.63398E+01-1.10964E+01-2.34860E+00
 -1       303 1.41421E+01-1.38704E+01-2.75899E+00
 -1       304 1.66294E+01-1.11114E+01-1.23031E-15
 -1       305 1.41421E+01-1.41421E+01-1.56589E-15
 -1       306 0.00000E+00-3.53553E+00 3.53553E+00
 -1       307 0.00000E+00-7.33520E+00 3.04064E+00
 -1       308 4.99549E+00-3.53235E+00 3.53235E+00
 -1       309 4.75764E+00-7.13249E+00 2.95837E+00
 -1       310 0.00000E+00-1.10436E+01 2.77860E+00
 -1       311 4.53767E+00-1.07000E+01 2.67106E+00
 -1       312 0.00000E+00-1.50494E+01 3.18000E+00
 -1       313 4.23956E+00-1.45980E+01 3.05982E+00
 -1       314 0.00000E+00-1.96157E+01 3.90181E+00
 -1       315 3.90181E+00-1.91805E+01 3.80705E+00
 -1       316 0.00000E+00-7.07107E+00 7.07107E+00
 -1       317 0.00000E+00-9.76971E+00 5.85098E+00
 -1       318 4.80253E+00-7.03819E+00 7.03819E+00
 -1       319 4.53756E+00-9.45108E+00 5.68495E+00
 -1       320 0.00000E+00-1.17880E+01 4.88769E+00
 -1       321 4.40150E+00-1.13353E+01 4.70040E+00
 -1       322 0.00000E+00-1.45533E+01 6.03355E+00
 -1       323 4.17505E+00-1.40398E+01 5.81898E+00
 -1       324 0.00000E+00-1.84776E+01 7.65367E+00
 -1       325 3.90181E+00-1.80466E+01 7.47514E+00
 -1       326 0.00000E+00-1.28861E+01 8.40142E+00
 -1       327 4.23924E+00-1.24835E+01 8.16338E+00
 -1       328 0.00000E+00-1.66294E+01 1.11114E+01
 -1       329 3.90181E+00-1.62546E+01 1.08706E+01
 -1       330 0.00000E+00-1.06066E+01 1.06066E+01
 -1       331 4.43205E+00-1.04920E+01 1.04920E+01
 -1       332 0.00000E+00-1.41421E+01 1.41421E+01
 -1       333 3.90181E+00-1.38704E+01 1.38704E+01
 -1       334 9.95350E+00-3.39590E+00 3.39590E+00
 -1       335 9.47865E+00-6.77942E+00 2.81121E+00
 -1       336 9.02400E+00-1.01360E+01 2.52004E+00
 -1       337 8.39046E+00-1.37800E+01 2.87764E+00
 -1       338 7.65367E+00-1.80466E+01 3.57904E+00
 -1       339 9.53010E+00-6.73880E+00 6.73880E+00
 -1       340 9.02377E+00-8.94630E+00 5.39001E+00
 -1       341 8.75678E+00-1.06968E+01 4.43342E+00
 -1       342 8.26795E+00-1.32218E+01 5.47794E+00
 -1       343 7.65367E+00-1.69722E+01 7.03010E+00
 -1       344 8.38893E+00-1.17770E+01 7.71065E+00
 -1       345 7.65367E+00-1.52916E+01 1.02301E+01
 -1       346 8.75165E+00-9.97770E+00 9.97770E+00
 -1       347 7.65367E+00-1.30656E+01 1.30656E+01
 -1       348 1.48380E+01-3.13393E+00 3.13393E+00
 -1       349 1.41591E+01-6.26223E+00 2.59276E+00
 -1       350 1.34500E+01-9.32876E+00 2.31785E+00
 -1       351 1.24058E+01-1.25665E+01 2.62529E+00
 -1       352 1.11114E+01-1.62546E+01 3.22550E+00
 -1       353 1.41106E+01-6.18835E+00 6.18835E+00
 -1       354 1.34503E+01-8.23409E+00 4.95338E+00
 -1       355 1.30666E+01-9.84420E+00 4.07308E+00
 -1       356 1.22428E+01-1.20651E+01 4.99365E+00
 -1       357 1.11114E+01-1.52916E+01 6.33400E+00
 -1       358 1.23973E+01-1.07407E+01 7.02385E+00
 -1       359 1.11114E+01-1.37745E+01 9.21298E+00
 -1       360 1.28506E+01-9.08678E+00 9.08678E+00
 -1       361 1.11114E+01-1.17588E+01 1.17588E+01
 -1       362 1.96157E+01-2.75899E+00 2.75899E+00
 -1       363 1.88995E+01-5.66462E+00 2.33493E+00
 -1       364 1.79340E+01-8.41170E+00 2.09121E+00
 -1       365 1.63896E+01-1.11199E+01 2.33551E+00
 -1       366 1.41421E+01-1.38704E+01 2.75899E+00
 -1       367 1.84776E+01-5.41196E+00 5.41196E+00
 -1       368 1.79443E+01-7.42243E+00 4.44803E+00
 -1       369 1.74334E+01-8.89622E+00 3.66551E+00
 -1       370 1.62074E+01-1.07255E+01 4.42687E+00
 -1       371 1.41421E+01-1.30656E+01 5.41196E+00
 -1       372 1.63398E+01-9.50707E+00 6.18565E+00
 -1       373 1.41421E+01-1.17588E+01 7.85695E+00
 -1       374 1.66294E+01-7.85695E+00 7.85695E+00
 -1       375 1.41421E+01-1.00000E+01 1.00000E+01
 -1       376 0.00000E+00-9.18455E-16 5.00000E+00
 -1       377 0.00000E+00-3.03672E+00 7.33683E+00
 -1       378 4.99549E+00-9.05105E-16 4.99549E+00
 -1       379 4.75764E+00-2.95155E+00 7.13531E+00
 -1       380 0.00000E+00-5.84423E+00 9.77377E+00
 -1       381 4.53767E+00-5.67730E+00 9.45474E+00
 -1       382 0.00000E+00-8.39291E+00 1.28901E+01
 -1       383 4.23956E+00-8.15874E+00 1.24860E+01
 -1       384 0.00000E+00-1.11114E+01 1.66294E+01
 -1       385 3.90181E+00-1.08706E+01 1.62546E+01
 -1       386 0.00000E+00-1.83691E-15 1.00000E+01
 -1       387 0.00000E+00-2.77096E+00 1.10455E+01
 -1       388 4.80253E+00-1.80376E-15 9.95350E+00
 -1       389 4.53756E+00-2.66305E+00 1.07028E+01
 -1       390 0.00000E+00-4.87926E+00 1.17915E+01
 -1       391 4.40150E+00-4.69157E+00 1.13389E+01
 -1       392 0.00000E+00-6.02435E+00 1.45571E+01
 -1       393 4.17505E+00-5.81301E+00 1.40423E+01
 -1       394 0.00000E+00-7.65367E+00 1.84776E+01
 -1       395 3.90181E+00-7.47514E+00 1.80466E+01
 -1       396 0.00000E+00-3.17118E+00 1.50526E+01
 -1       397 4.23924E+00-3.05476E+00 1.45995E+01
 -1       398 0.00000E+00-3.90181E+00 1.96157E+01
 -1       399 3.90181E+00-3.80705E+00 1.91805E+01
 -1       400 0.00000E+00-2.75536E-15 1.50000E+01
 -1       401 4.43205E+00-2.68978E-15 1.48380E+01
 -1       402 0.00000E+00-3.67382E-15 2.00000E+01
 -1       403 3.90181E+00-3.55744E-15 1.96157E+01
 -1       404 9.95350E+00-8.57578E-16 4.80253E+00
 -1       405 9.47865E+00-2.80595E+00 6.78160E+00
 -1       406 9.02400E+00-5.38528E+00 8.94915E+00
 -1       407 8.39046E+00-7.70911E+00 1.17787E+01
 -1       408 7.65367E+00-1.02301E+01 1.52916E+01
 -1       409 9.53010E+00-1.70226E-15 9.53010E+00
 -1       410 9.02377E+00-2.51468E+00 1.01373E+01
 -1       411 8.75678E+00-4.42888E+00 1.06987E+01
 -1       412 8.26795E+00-5.47576E+00 1.32227E+01
 -1       413 7.65367E+00-7.03010E+00 1.69722E+01
 -1       414 8.38893E+00-2.87532E+00 1.37798E+01
 -1       415 7.65367E+00-3.57904E+00 1.80466E+01
 -1       416 8.75165E+00-2.52166E-15 1.41106E+01
 -1       417 7.65367E+00-3.30435E-15 1.84776E+01
 -1       418 1.48380E+01-7.78304E-16 4.43205E+00
 -1       419 1.41591E+01-2.59471E+00 6.26142E+00
 -1       420 1.34500E+01-4.95746E+00 8.23539E+00
 -1       421 1.24058E+01-7.02951E+00 1.07422E+01
 -1       422 1.11114E+01-9.21298E+00 1.37745E+01
 -1       423 1.41106E+01-1.53727E-15 8.75165E+00
 -1       424 1.34503E+01-2.31981E+00 9.32495E+00
 -1       425 1.30666E+01-4.08080E+00 9.84101E+00
 -1       426 1.22428E+01-5.00025E+00 1.20623E+01
 -1       427 1.11114E+01-6.33400E+00 1.52916E+01
 -1       428 1.23973E+01-2.62825E+00 1.25615E+01
 -1       429 1.11114E+01-3.22550E+00 1.62546E+01
 -1       430 1.28506E+01-2.25831E-15 1.28506E+01
 -1       431 1.11114E+01-2.92427E-15 1.66294E+01
 -1       432 1.96157E+01-6.70936E-16 3.90181E+00
 -1       433 1.88995E+01-2.35444E+00 5.65653E+00
 -1       434 1.79340E+01-4.46926E+00 7.42668E+00
 -1       435 1.63896E+01-6.21151E+00 9.51441E+00
 -1       436 1.41421E+01-7.85695E+00 1.17588E+01
 -1       437 1.84776E+01-1.31609E-15 7.65367E+00
 -1       438 1.79443E+01-2.10321E+00 8.39368E+00
 -1       439 1.74334E+01-3.69867E+00 8.88249E+00
 -1       440 1.62074E+01-4.45378E+00 1.07143E+01
 -1       441 1.41421E+01-5.41196E+00 1.30656E+01
 -1       442 1.63398E+01-2.34860E+00 1.10964E+01
 -1       443 1.41421E+01-2.75899E+00 1.38704E+01
 -1       444 1.66294E+01-1.91067E-15 1.11114E+01
 -1       445 1.41421E+01-2.43182E-15 1.41421E+01
 -1       446 0.00000E+00 3.53553E+00 3.53553E+00
 -1       447 0.00000E+00 3.04064E+00 7.33520E+00
 -1       448 4.99549E+00 3.53235E+00 3.53235E+00
 -1       449 4.75764E+00 2.95837E+00 7.13249E+00
 -1       450 0.00000E+00 2.77860E+00 1.10436E+01
 -1       451 4.53767E+00 2.67106E+00 1.07000E+01
 -1       452 0.00000E+00 3.18000E+00 1.50494E+01
 -1       453 4.23956E+00 3.05982E+00 1.45980E+01
 -1       454 0.00000E+00 3.90181E+00 1.96157E+01
 -1       455 3.90181E+00 3.80705E+00 1.91805E+01
 -1       456 0.00000E+00 7.07107E+00 7.07107E+00
 -1       457 0.00000E+00 5.85098E+00 9.76971E+00
 -1       458 4.80253E+00 7.03819E+00 7.03819E+00
 -1       459 4.53756E+00 5.68495E+00 9.45108E+00
 -1       460 0.00000E+00 4.88769E+00 1.17880E+01
 -1       461 4.40150E+00 4.70040E+00 1.13353E+01
 -1       462 0.00000E+00 6.03355E+00 1.45533E+01
 -1       463 4.17505E+00 5.81898E+00 1.40398E+01
 -1       464 0.00000E+00 7.65367E+00 1.84776E+01
 -1       465 3.90181E+00 7.47514E+00 1.80466E+01
 -1       466 0.00000E+00 8.40142E+00 1.28861E+01
 -1       467 4.23924E+00 8.16338E+00 1.24835E+01
 -1       468 0.00000E+00 1.11114E+01 1.66294E+01
 -1       469 3.90181E+00 1.08706E+01 1.62546E+01
 -1       470 0.00000E+00 1.06066E+01 1.06066E+01
 -1       471 4.43205E+00 1.04920E+01 1.04920E+01
 -1       472 0.00000E+00 1.41421E+01 1.41421E+01
 -1       473 3.90181E+00 1.38704E+01 1.38704E+01
 -1       474 9.95350E+00 3.39590E+00 3.39590E+00
 -1       475 9.47865E+00 2.81121E+00 6.77942E+00
 -1       476 9.02400E+00 2.52004E+00 1.01360E+01
 -1       477 8.39046E+00 2.87764E+00 1.37800E+01
 -1       478 7.65367E+00 3.57904E+00 1.80466E+01
 -1       479 9.53010E+00 6.73880E+00 6.73880E+00
 -1       480 9.02377E+00 5.39001E+00 8.94630E+00
 -1       481 8.75678E+00 4.43342E+00 1.06968E+01
 -1       482 8.26795E+00 5.47794E+00 1.32218E+01
 -1       483 7.65367E+00 7.03010E+00 1.69722E+01
 -1       484 8.38893E+00 7.71065E+00 1.17770E+01
 -1       485 7.65367E+00 1.02301E+01 1.52916E+01
 -1       486 8.75165E+00 9.97770E+00 9.97770E+00
 -1       487 7.65367E+00 1.30656E+01 1.30656E+01
 -1       488 1.48380E+01 3.13393E+00 3.13393E+00
 -1       489 1.41591E+01 2.59276E+00 6.26223E+00
 -1       490 1.34500E+01 2.31785E+00 9.32876E+00
 -1       491 1.24058E+01 2.62529E+00 1.25665E+01
 -1       492 1.11114E+01 3.22550E+00 1.62546E+01
 -1       493 1.41106E+01 6.18835E+00 6.18835E+00
 -1       494 1.34503E+01 4.95338E+00 8.23409E+00
 -1       495 1.30666E+01 4.07308E+00 9.84420E+00
 -1       496 1.22428E+01 4.99365E+00 1.20651E+01
 -1       497 1.11114E+01 6.33400E+00 1.52916E+01
 -1       498 1.23973E+01 7.02385E+00 1.07407E+01
 -1       499 1.11114E+01 9.21298E+00 1.37745E+01
 -1       500 1.28506E+01 9.08678E+00 9.08678E+00
 -1       501 1.11114E+01 1.17588E+01 1.17588E+01
 -1       502 1.96157E+01 2.75899E+00 2.75899E+00
 -1       503 1.88995E+01 2.33493E+00 5.66462E+00
 -1       504 1.79340E+01 2.09121E+00 8.41170E+00
 -1       505 1.63896E+01 2.33551E+00 1.11199E+01
 -1       506 1.41421E+01 2.75899E+00 1.38704E+01
 -1       507 1.84776E+01 5.41196E+00 5.41196E+00
 -1       508 1.79443E+01 4.44803E+00 7.42243E+00
 -1       509 1.74334E+01 3.66551E+00 8.89622E+00
 -1       510 1.62074E+01 4.42687E+00 1.07255E+01
 -1       511 1.41421E+01 5.41196E+00 1.30656E+01
 -1       512 1.63398E+01 6.18565E+00 9.50707E+00
 -1       513 1.41421E+01 7.85695E+00 1.17588E+01
 -1       514 1.66294E+01 7.85695E+00 7.85695E+00
 -1       515 1.41421E+01 1.00000E+01 1.00000E+01
 -1       516 0.00000E+00 7.33683E+00 3.03672E+00
 -1       517 4.75764E+00 7.13531E+00 2.95155E+00
 -1       518 0.00000E+00 9.77377E+00 5.84423E+00
 -1       519 4.53767E+00 9.45474E+00 5.67730E+00
 -1       520 0.00000E+00 1.28901E+01 8.39291E+00
 -1       521 4.23956E+00 1.24860E+01 8.15874E+00
 -1       522 0.00000E+00 1.66294E+01 1.11114E+01
 -1       523 3.90181E+00 1.62546E+01 1.08706E+01
 -1       524 0.00000E+00 1.10455E+01 2.77096E+00
 -1       525 4.53756E+00 1.07028E+01 2.66305E+00
 -1       526 0.00000E+00 1.17915E+01 4.87926E+00
 -1       527 4.40150E+00 1.13389E+01 4.69157E+00
 -1       528 0.00000E+00 1.45571E+01 6.02435E+00
 -1       529 4.17505E+00 1.40423E+01 5.81301E+00
 -1       530 0.00000E+00 1.84776E+01 7.65367E+00
 -1       531 3.90181E+00 1.80466E+01 7.47514E+00
 -1       532 0.00000E+00 1.50526E+01 3.17118E+00
 -1       533 4.23924E+00 1.45995E+01 3.05476E+00
 -1       534 0.00000E+00 1.96157E+01 3.90181E+00
 -1       535 3.90181E+00 1.91805E+01 3.80705E+00
 -1       536 9.47865E+00 6.78160E+00 2.80595E+00
 -1       537 9.02400E+00 8.94915E+00 5.38528E+00
 -1       538 8.39046E+00 1.17787E+01 7.70911E+00
 -1       539 7.65367E+00 1.52916E+01 1.02301E+01
 -1       540 9.02377E+00 1.01373E+01 2.51468E+00
 -1       541 8.75678E+00 1.06987E+01 4.42888E+00
 -1       542 8.26795E+00 1.32227E+01 5.47576E+00
 -1       543 7.65367E+00 1.69722E+01 7.03010E+00
 -1       544 8.38893E+00 1.37798E+01 2.87532E+00
 -1       545 7.65367E+00 1.80466E+01 3.57904E+00
 -1       546 1.41591E+01 6.26142E+00 2.59471E+00
 -1       547 1.34500E+01 8.23539E+00 4.95746E+00
 -1       548 1.24058E+01 1.07422E+01 7.02951E+00
 -1       549 1.11114E+01 1.37745E+01 9.21298E+00
 -1       550 1.34503E+01 9.32495E+00 2.31981E+00
 -1       551 1.30666E+01 9.84101E+00 4.08080E+00
 -1       552 1.22428E+01 1.20623E+01 5.00025E+00
 -1       553 1.11114E+01 1.52916E+01 6.33400E+00
 -1       554 1.23973E+01 1.25615E+01 2.62825E+00
 -1       555 1.11114E+01 1.62546E+01 3.22550E+00
 -1       556 1.88995E+01 5.65653E+00 2.35444E+00
 -1       557 1.79340E+01 7.42668E+00 4.46926E+00
 -1       558 1.63896E+01 9.51441E+00 6.21151E+00
 -1       559 1.41421E+01 1.17588E+01 7.85695E+00
 -1       560 1.79443E+01 8.39368E+00 2.10321E+00
 -1       561 1.74334E+01 8.88249E+00 3.69867E+00
 -1       562 1.62074E+01 1.07143E+01 4.45378E+00
 -1       563 1.41421E+01 1.30656E+01 5.41196E+00
 -1       564 1.63398E+01 1.10964E+01 2.34860E+00
 -1       565 1.41421E+01 1.38704E+01 2.75899E+00
 -1       566-3.90181E+00 1.96157E+01 9.09845E-16
 -1       567-3.90181E+00 1.91805E+01-3.80705E+00
 -1       568-4.24032E+00 1.45961E+01-3.06060E+00
 -1       569-4.43205E+00 1.48380E+01 7.11812E-16
 -1       570-4.53836E+00 1.06977E+01-2.67036E+00
 -1       571-4.80253E+00 9.95350E+00 4.88886E-16
 -1       572-4.75787E+00 7.13106E+00-2.95651E+00
 -1       573-4.99549E+00 4.99549E+00 2.48814E-16
 -1       574-4.99549E+00 3.53235E+00-3.53235E+00
 -1       575-5.00000E+00 0.00000E+00 0.00000E+00
 -1       576-3.90181E+00 1.80466E+01-7.47514E+00
 -1       577-4.17581E+00 1.40379E+01-5.81963E+00
 -1       578-4.40226E+00 1.13329E+01-4.69974E+00
 -1       579-4.53788E+00 9.44957E+00-5.68328E+00
 -1       580-4.80253E+00 7.03819E+00-7.03819E+00
 -1       581-3.90181E+00 1.62546E+01-1.08706E+01
 -1       582-4.23953E+00 1.24826E+01-8.16313E+00