
                        S T E P       1


                                INCREMENT     1


 displacements (vx,vy,vz) for set NALL and time  0.1000000E-02

         1  1.000000E-01  6.196080E-19 -4.905000E-03
         2  1.000000E-01 -2.575946E-19 -4.905000E-03
         3  1.000000E-01  2.369117E-18 -4.905000E-03
         4  1.000000E-01  6.379920E-19 -4.905000E-03
         5  1.000000E-01  1.955974E-18 -4.905000E-03
         6  1.000000E-01  1.993003E-18 -4.905000E-03
         7  1.000000E-01  2.276316E-18 -4.905000E-03
         8  1.000000E-01  1.519975E-18 -4.905000E-03
         9  1.000000E-01  7.726866E-19 -4.905000E-03
        10  1.000000E-01  4.374749E-19 -4.905000E-03
        11  1.000000E-01  3.138325E-18 -4.905000E-03
        12  1.000000E-01  2.915965E-18 -4.905000E-03
        13  1.000000E-01  2.711628E-18 -4.905000E-03
        14  1.000000E-01 -4.377016E-19 -4.905000E-03
        15  1.000000E-01  2.049432E-18 -4.905000E-03
        16  1.000000E-01  2.027902E-18 -4.905000E-03
        17  1.000000E-01  3.660126E-18 -4.905000E-03
        18  1.000000E-01  4.438090E-18 -4.905000E-03
        19  1.000000E-01 -1.374270E-18 -4.905000E-03
        20  1.000000E-01 -1.058464E-18 -4.905000E-03
        21  1.000000E-01 -6.171553E-19 -4.905000E-03
        22  1.000000E-01  5.866050E-19 -4.905000E-03
        23  1.000000E-01  2.020810E-18 -4.905000E-03
        24  1.000000E-01  1.440711E-18 -4.905000E-03
        25  1.000000E-01  1.342767E-18 -4.905000E-03
        26  1.000000E-01  3.176343E-18 -4.905000E-03
        27  1.000000E-01  1.171452E-18 -4.905000E-03
        28  1.000000E-01  3.163554E-18 -4.905000E-03
        29  1.000000E-01  3.385979E-18 -4.905000E-03
        30  1.000000E-01  1.158810E-18 -4.905000E-03
        31  1.000000E-01  6.000270E-19 -4.905000E-03
        32  1.000000E-01  2.649086E-18 -4.905000E-03
        33  1.000000E-01  1.956069E-19 -4.905000E-03
        34  1.000000E-01  1.394756E-18 -4.905000E-03
        35  1.000000E-01  1.932671E-18 -4.905000E-03
        36  1.000000E-01  1.190920E-18 -4.905000E-03
        37  1.000000E-01 -1.826026E-18 -4.905000E-03
        38  1.000000E-01  3.265234E-18 -4.905000E-03
        39  1.000000E-01  1.384622E-18 -4.905000E-03
        40  1.000000E-01  2.062715E-18 -4.905000E-03
        41  1.000000E-01  1.542583E-18 -4.905000E-03
        42  1.000000E-01  6.325175E-19 -4.905000E-03
        43  1.000000E-01 -4.432504E-19 -4.905000E-03
        44  1.000000E-01  9.870777E-20 -4.905000E-03
        45  1.000000E-01  1.233386E-18 -4.905000E-03
        46  1.000000E-01  3.064296E-18 -4.905000E-03
        47  1.000000E-01  5.202894E-18 -4.905000E-03
        48  1.000000E-01  2.550207E-18 -4.905000E-03
        49  1.000000E-01 -2.919683E-19 -4.905000E-03
        50  1.000000E-01  2.008593E-19 -4.905000E-03
        51  1.000000E-01  6.661775E-19 -4.905000E-03
        52  1.000000E-01  9.522541E-20 -4.905000E-03
        53  1.000000E-01 -3.851178E-19 -4.905000E-03
        54  1.000000E-01  1.280881E-18 -4.905000E-03
        55  1.000000E-01  1.962825E-18 -4.905000E-03
        56  1.000000E-01  2.860201E-18 -4.905000E-03
        57  1.000000E-01  3.354509E-19 -4.905000E-03
        58  1.000000E-01  3.471227E-19 -4.905000E-03
        59  1.000000E-01  1.555831E-18 -4.905000E-03
        60  1.000000E-01  9.833712E-19 -4.905000E-03
        61  1.000000E-01  2.272726E-18 -4.905000E-03
        62  1.000000E-01  1.339247E-18 -4.905000E-03
        63  1.000000E-01  4.557288E-19 -4.905000E-03
        64  1.000000E-01  1.723280E-18 -4.905000E-03
        65  1.000000E-01 -8.993336E-20 -4.905000E-03
        66  1.000000E-01 -1.846185E-18 -4.905000E-03
        67  1.000000E-01  4.476936E-18 -4.905000E-03
        68  1.000000E-01  2.774783E-18 -4.905000E-03
        69  1.000000E-01  1.853390E-18 -4.905000E-03
        70  1.000000E-01  2.320282E-18 -4.905000E-03
        71  1.000000E-01  1.821759E-18 -4.905000E-03
        72  1.000000E-01 -3.597812E-19 -4.905000E-03
        73  1.000000E-01  8.453647E-19 -4.905000E-03
        74  1.000000E-01  4.063941E-18 -4.905000E-03
        75  1.000000E-01  2.378296E-18 -4.905000E-03
        76  1.000000E-01 -3.665979E-19 -4.905000E-03
        77  1.000000E-01  3.734992E-18 -4.905000E-03
        78  1.000000E-01  2.574522E-18 -4.905000E-03
        79  1.000000E-01  2.956526E-18 -4.905000E-03
        80  1.000000E-01  8.399690E-19 -4.905000E-03
        81  1.000000E-01  2.813354E-18 -4.905000E-03
        82  1.000000E-01  2.412343E-18 -4.905000E-03
        83  1.000000E-01  2.996843E-18 -4.905000E-03
        84  1.000000E-01 -6.878209E-19 -4.905000E-03
        85  1.000000E-01  2.149917E-18 -4.905000E-03
        86  1.000000E-01 -2.404444E-18 -4.905000E-03
        87  1.000000E-01  3.877243E-18 -4.905000E-03
        88  1.000000E-01  3.682837E-18 -4.905000E-03
        89  1.000000E-01  2.061724E-18 -4.905000E-03
        90  1.000000E-01  1.461077E-18 -4.905000E-03
        91  1.000000E-01  2.780832E-18 -4.905000E-03
        92  1.000000E-01  3.895255E-18 -4.905000E-03
        93  1.000000E-01  3.618323E-18 -4.905000E-03
        94  1.000000E-01  6.059609E-18 -4.905000E-03
        95  1.000000E-01  1.055224E-18 -4.905000E-03
        96  1.000000E-01  1.104005E-18 -4.905000E-03
        97  1.000000E-01 -5.635671E-19 -4.905000E-03
        98  1.000000E-01  2.268958E-18 -4.905000E-03
        99  1.000000E-01  2.328611E-18 -4.905000E-03
       100  1.000000E-01 -2.443427E-19 -4.905000E-03
       101  1.000000E-01  3.083279E-18 -4.905000E-03
       102  1.000000E-01  1.611135E-18 -4.905000E-03
       103  1.000000E-01  1.423522E-18 -4.905000E-03
       104  1.000000E-01  3.762192E-19 -4.905000E-03
       105  1.000000E-01  4.433762E-18 -4.905000E-03
       106  1.000000E-01  2.251449E-19 -4.905000E-03
       107  1.000000E-01  9.812038E-19 -4.905000E-03
       108  1.000000E-01  1.742672E-18 -4.905000E-03
       109  1.000000E-01  3.698610E-18 -4.905000E-03
       110  1.000000E-01  6.159073E-19 -4.905000E-03
       111  1.000000E-01  1.874201E-18 -4.905000E-03
       112  1.000000E-01  9.925098E-19 -4.905000E-03
       113  1.000000E-01  4.309494E-18 -4.905000E-03
       114  1.000000E-01  3.644134E-18 -4.905000E-03
       115  1.000000E-01  2.909732E-18 -4.905000E-03
       116  1.000000E-01  1.877932E-18 -4.905000E-03
       117  1.000000E-01  2.365002E-18 -4.905000E-03
       118  1.000000E-01  5.372610E-18 -4.905000E-03
       119  1.000000E-01  2.688200E-18 -4.905000E-03
       120  1.000000E-01  2.404644E-18 -4.905000E-03
       121  1.000000E-01  2.682900E-18 -4.905000E-03
       122  1.000000E-01  4.487780E-18 -4.905000E-03
       123  1.000000E-01  2.725486E-18 -4.905000E-03
       124  1.000000E-01  1.668757E-18 -4.905000E-03
       125  1.000000E-01  8.052499E-19 -4.905000E-03
       126  1.000000E-01  1.884751E-18 -4.905000E-03
       127  1.000000E-01  5.211185E-19 -4.905000E-03
       128  1.000000E-01  3.953597E-18 -4.905000E-03
       129  1.000000E-01  3.595455E-18 -4.905000E-03
       130  1.000000E-01  2.504514E-18 -4.905000E-03
       131  1.000000E-01  1.761584E-18 -4.905000E-03
       132  1.000000E-01  2.263178E-18 -4.905000E-03
       133  1.000000E-01  1.911433E-18 -4.905000E-03
       134  1.000000E-01  2.612997E-18 -4.905000E-03
       135  1.000000E-01  1.764712E-18 -4.905000E-03
       136  1.000000E-01  1.902122E-18 -4.905000E-03
       137  1.000000E-01  4.402218E-18 -4.905000E-03
       138  1.000000E-01  2.115951E-18 -4.905000E-03
       139  1.000000E-01  2.867072E-18 -4.905000E-03
       140  1.000000E-01  3.035155E-18 -4.905000E-03
       141  1.000000E-01  2.345080E-18 -4.905000E-03
       142  1.000000E-01  3.814455E-18 -4.905000E-03
       143  1.000000E-01  1.991755E-18 -4.905000E-03
       144  1.000000E-01  2.663750E-18 -4.905000E-03
       145  1.000000E-01  3.168409E-18 -4.905000E-03
       146  1.000000E-01  3.336503E-18 -4.905000E-03
       147  1.000000E-01 -3.876604E-19 -4.905000E-03
       148  1.000000E-01  3.592049E-19 -4.905000E-03
       149  1.000000E-01  3.461316E-18 -4.905000E-03
       150  1.000000E-01  1.115977E-18 -4.905000E-03
       151  1.000000E-01  2.121300E-19 -4.905000E-03
       152  1.000000E-01  1.805575E-18 -4.905000E-03
       153  1.000000E-01  1.417597E-18 -4.905000E-03
       154  1.000000E-01  5.317069E-18 -4.905000E-03
       155  1.000000E-01  3.934190E-18 -4.905000E-03
       156  1.000000E-01  4.464350E-18 -4.905000E-03
       157  1.000000E-01  2.908092E-19 -4.905000E-03
       158  1.000000E-01  3.025445E-18 -4.905000E-03
       159  1.000000E-01  2.559985E-18 -4.905000E-03
       160  1.000000E-01  5.420110E-18 -4.905000E-03
       161  1.000000E-01  5.873504E-18 -4.905000E-03
       162  1.000000E-01  3.785347E-18 -4.905000E-03
       163  1.000000E-01  3.187654E-18 -4.905000E-03
       164  1.000000E-01  2.949821E-18 -4.905000E-03
       165  1.000000E-01  8.886503E-19 -4.905000E-03
       166  1.000000E-01 -2.425727E-19 -4.905000E-03
       167  1.000000E-01  3.893804E-18 -4.905000E-03
       168  1.000000E-01  3.215906E-18 -4.905000E-03
       169  1.000000E-01  1.701298E-19 -4.905000E-03
       170  1.000000E-01  1.507460E-18 -4.905000E-03
       171  1.000000E-01  2.773495E-18 -4.905000E-03
       172  1.000000E-01  2.450460E-18 -4.905000E-03
       173  1.000000E-01  3.244851E-18 -4.905000E-03
       174  1.000000E-01  3.518288E-18 -4.905000E-03
       175  1.000000E-01  5.896148E-19 -4.905000E-03
       176  1.000000E-01  3.402053E-18 -4.905000E-03
       177  1.000000E-01  9.751234E-20 -4.905000E-03
       178  1.000000E-01  2.280080E-18 -4.905000E-03
       179  1.000000E-01  2.102170E-18 -4.905000E-03
       180  1.000000E-01  1.164552E-18 -4.905000E-03
       181  1.000000E-01  2.734544E-18 -4.905000E-03
       182  1.000000E-01  2.706201E-18 -4.905000E-03
       183  1.000000E-01  3.559325E-18 -4.905000E-03
       184  1.000000E-01  1.934751E-18 -4.905000E-03
       185  1.000000E-01  2.102587E-18 -4.905000E-03
       186  1.000000E-01  4.358283E-18 -4.905000E-03
       187  1.000000E-01  1.095407E-18 -4.905000E-03
       188  1.000000E-01  3.052586E-18 -4.905000E-03
       189  1.000000E-01  1.123852E-18 -4.905000E-03
       190  1.000000E-01  1.311660E-18 -4.905000E-03
       191  1.000000E-01  4.235222E-18 -4.905000E-03
       192  1.000000E-01  6.328613E-18 -4.905000E-03
       193  1.000000E-01  2.698299E-18 -4.905000E-03
       194  1.000000E-01  1.395418E-18 -4.905000E-03
       195  1.000000E-01  3.590524E-18 -4.905000E-03
       196  1.000000E-01  3.167890E-18 -4.905000E-03
       197  1.000000E-01  4.413592E-18 -4.905000E-03
       198  1.000000E-01  2.894996E-18 -4.905000E-03
       199  1.000000E-01  1.101437E-18 -4.905000E-03
       200  1.000000E-01  2.204994E-18 -4.905000E-03
       201  1.000000E-01  2.882467E-18 -4.905000E-03
       202  1.000000E-01  2.836770E-18 -4.905000E-03
       203  1.000000E-01  2.475297E-18 -4.905000E-03
       204  1.000000E-01  3.876622E-18 -4.905000E-03
       205  1.000000E-01  2.789498E-18 -4.905000E-03
       206  1.000000E-01  2.057783E-19 -4.905000E-03
       207  1.000000E-01 -1.604406E-19 -4.905000E-03
       208  1.000000E-01  2.817834E-18 -4.905000E-03
       209  1.000000E-01  2.135057E-18 -4.905000E-03
       210  1.000000E-01  4.733806E-19 -4.905000E-03
       211  1.000000E-01  1.694249E-18 -4.905000E-03
       212  1.000000E-01  4.174478E-18 -4.905000E-03
       213  1.000000E-01  1.816727E-18 -4.905000E-03
       214  1.000000E-01  2.786543E-18 -4.905000E-03
       215  1.000000E-01  5.615091E-19 -4.905000E-03
       216  1.000000E-01 -3.278979E-19 -4.905000E-03
       217  1.000000E-01  2.184843E-18 -4.905000E-03
       218  1.000000E-01  2.403991E-18 -4.905000E-03
       219  1.000000E-01  3.442870E-18 -4.905000E-03
       220  1.000000E-01  2.434894E-18 -4.905000E-03
       221  1.000000E-01  1.308240E-18 -4.905000E-03
       222  1.000000E-01  1.548502E-18 -4.905000E-03
       223  1.000000E-01  2.536334E-18 -4.905000E-03
       224  1.000000E-01  3.111989E-18 -4.905000E-03
       225  1.000000E-01  2.433272E-18 -4.905000E-03
       226  1.000000E-01  1.856525E-18 -4.905000E-03
       227  1.000000E-01  2.033924E-18 -4.905000E-03
       228  1.000000E-01  1.913745E-18 -4.905000E-03
       229  1.000000E-01  4.238327E-18 -4.905000E-03
       230  1.000000E-01  3.476081E-18 -4.905000E-03
       231  1.000000E-01  5.241141E-18 -4.905000E-03
       232  1.000000E-01  1.491109E-18 -4.905000E-03
       233  1.000000E-01  4.823943E-18 -4.905000E-03
       234  1.000000E-01  3.511064E-18 -4.905000E-03
       235  1.000000E-01  1.081910E-18 -4.905000E-03
       236  1.000000E-01  1.974269E-18 -4.905000E-03
       237  1.000000E-01  1.454744E-18 -4.905000E-03
       238  1.000000E-01  1.425579E-18 -4.905000E-03
       239  1.000000E-01  2.198425E-18 -4.905000E-03
       240  1.000000E-01  2.302399E-18 -4.905000E-03
       241  1.000000E-01  1.955073E-18 -4.905000E-03
       242  1.000000E-01  4.409716E-19 -4.905000E-03
       243  1.000000E-01  2.635686E-18 -4.905000E-03
       244  1.000000E-01  3.525761E-18 -4.905000E-03
       245  1.000000E-01  9.864186E-19 -4.905000E-03
       246  1.000000E-01  8.301720E-19 -4.905000E-03
       247  1.000000E-01  2.736989E-19 -4.905000E-03
       248  1.000000E-01  1.048899E-18 -4.905000E-03
       249  1.000000E-01  2.505581E-18 -4.905000E-03
       250  1.000000E-01  2.243783E-18 -4.905000E-03
       251  1.000000E-01  1.320631E-18 -4.905000E-03
       252  1.000000E-01  2.546828E-18 -4.905000E-03
       253  1.000000E-01  3.811057E-20 -4.905000E-03
       254  1.000000E-01  1.618675E-18 -4.905000E-03
       255  1.000000E-01 -2.637378E-18 -4.905000E-03
       256  1.000000E-01  1.620412E-18 -4.905000E-03
       257  1.000000E-01 -8.258788E-20 -4.905000E-03
       258  1.000000E-01  6.803441E-19 -4.905000E-03
       259  1.000000E-01 -2.501987E-18 -4.905000E-03
       260  1.000000E-01  8.890460E-19 -4.905000E-03
       261  1.000000E-01  8.633753E-19 -4.905000E-03
       262  1.000000E-01 -9.951619E-19 -4.905000E-03
       263  1.000000E-01  7.775046E-19 -4.905000E-03
       264  1.000000E-01 -4.782320E-20 -4.905000E-03
       265  1.000000E-01  1.322701E-18 -4.905000E-03
       266  1.000000E-01  3.625456E-18 -4.905000E-03
       267  1.000000E-01  4.750692E-19 -4.905000E-03
       268  1.000000E-01  2.668090E-18 -4.905000E-03
       269  1.000000E-01  7.857219E-19 -4.905000E-03
       270  1.000000E-01  1.044681E-18 -4.905000E-03
       271  1.000000E-01  1.530413E-18 -4.905000E-03
       272  1.000000E-01  3.585679E-18 -4.905000E-03
       273  1.000000E-01  3.648144E-18 -4.905000E-03
       274  1.000000E-01  1.234284E-18 -4.905000E-03
       275  1.000000E-01  3.467143E-18 -4.905000E-03
       276  1.000000E-01  1.435344E-18 -4.905000E-03
       277  1.000000E-01  7.808085E-20 -4.905000E-03
       278  1.000000E-01  2.872036E-18 -4.905000E-03
       279  1.000000E-01  1.289747E-18 -4.905000E-03
       280  1.000000E-01  9.615859E-19 -4.905000E-03
       281  1.000000E-01  4.111330E-18 -4.905000E-03
       282  1.000000E-01  1.419320E-18 -4.905000E-03
       283  1.000000E-01  1.069922E-18 -4.905000E-03
       284  1.000000E-01  2.236206E-18 -4.905000E-03
       285  1.000000E-01  1.642540E-18 -4.905000E-03
       286  1.000000E-01  7.345201E-19 -4.905000E-03
       287  1.000000E-01  2.716452E-18 -4.905000E-03
       288  1.000000E-01  1.084307E-18 -4.905000E-03
       289  1.000000E-01 -7.603347E-19 -4.905000E-03
       290  1.000000E-01 -1.251517E-18 -4.905000E-03
       291  1.000000E-01  9.606386E-19 -4.905000E-03
       292  1.000000E-01  3.422241E-18 -4.905000E-03
       293  1.000000E-01  3.266682E-18 -4.905000E-03
       294  1.000000E-01  1.794129E-18 -4.905000E-03
       295  1.000000E-01  2.798748E-18 -4.905000E-03
       296  1.000000E-01  5.363998E-18 -4.905000E-03
       297  1.000000E-01  2.813852E-18 -4.905000E-03
       298  1.000000E-01  6.559045E-19 -4.905000E-03
       299  1.000000E-01  1.464756E-18 -4.905000E-03
       300  1.000000E-01  3.618672E-18 -4.905000E-03
       301  1.000000E-01  5.006637E-19 -4.905000E-03
       302  1.000000E-01  1.168422E-18 -4.905000E-03
       303  1.000000E-01  2.832421E-18 -4.905000E-03
       304  1.000000E-01  4.318571E-18 -4.905000E-03
       305  1.000000E-01  6.656576E-19 -4.905000E-03
       306  1.000000E-01  1.976364E-18 -4.905000E-03
       307  1.000000E-01  8.456462E-19 -4.905000E-03
       308  1.000000E-01 -1.060062E-18 -4.905000E-03
       309  1.000000E-01  4.762604E-19 -4.905000E-03
       310  1.000000E-01  2.030384E-18 -4.905000E-03
       311  1.000000E-01  8.275317E-19 -4.905000E-03
       312  1.000000E-01  1.652851E-18 -4.905000E-03
       313  1.000000E-01  6.917365E-19 -4.905000E-03
       314  1.000000E-01  2.317824E-18 -4.905000E-03
       315  1.000000E-01  3.299848E-18 -4.905000E-03
       316  1.000000E-01  3.502393E-20 -4.905000E-03
       317  1.000000E-01  1.751085E-18 -4.905000E-03
       318  1.000000E-01  2.333909E-18 -4.905000E-03
       319  1.000000E-01  3.384833E-19 -4.905000E-03
       320  1.000000E-01  2.229553E-18 -4.905000E-03
       321  1.000000E-01  9.519679E-19 -4.905000E-03
       322  1.000000E-01  1.383809E-18 -4.905000E-03
       323  1.000000E-01  1.560590E-18 -4.905000E-03
       324  1.000000E-01  3.196197E-18 -4.905000E-03
       325  1.000000E-01  2.348329E-18 -4.905000E-03
       326  1.000000E-01  7.652463E-19 -4.905000E-03
       327  1.000000E-01  1.095572E-18 -4.905000E-03
       328  1.000000E-01  2.135598E-18 -4.905000E-03
       329  1.000000E-01  8.290097E-19 -4.905000E-03
       330  1.000000E-01  1.560887E-18 -4.905000E-03
       331  1.000000E-01  1.404938E-18 -4.905000E-03
       332  1.000000E-01  1.328103E-18 -4.905000E-03
       333  1.000000E-01 -2.140945E-18 -4.905000E-03
       334  1.000000E-01 -4.534257E-19 -4.905000E-03
       335  1.000000E-01  1.582826E-19 -4.905000E-03
       336  1.000000E-01  2.299105E-18 -4.905000E-03
       337  1.000000E-01 -1.135528E-18 -4.905000E-03
       338  1.000000E-01  3.499810E-19 -4.905000E-03
       339  1.000000E-01  3.014401E-20 -4.905000E-03
       340  1.000000E-01  1.436816E-18 -4.905000E-03
       341  1.000000E-01 -3.075074E-19 -4.905000E-03
       342  1.000000E-01 -3.766291E-19 -4.905000E-03
       343  1.000000E-01  7.101158E-19 -4.905000E-03
       344  1.000000E-01 -2.711297E-18 -4.905000E-03
       345  1.000000E-01 -6.220315E-20 -4.905000E-03
       346  1.000000E-01 -1.218317E-18 -4.905000E-03
       347  1.000000E-01 -2.191973E-18 -4.905000E-03
       348  1.000000E-01  3.443593E-18 -4.905000E-03
       349  1.000000E-01  2.741629E-18 -4.905000E-03
       350  1.000000E-01 -1.919555E-19 -4.905000E-03
       351  1.000000E-01  6.110535E-19 -4.905000E-03
       352  1.000000E-01  3.111187E-19 -4.905000E-03
       353  1.000000E-01 -7.614548E-19 -4.905000E-03
       354  1.000000E-01  9.920011E-19 -4.905000E-03
       355  1.000000E-01 -4.222647E-19 -4.905000E-03
       356  1.000000E-01 -1.456545E-18 -4.905000E-03
       357  1.000000E-01 -1.191163E-18 -4.905000E-03
       358  1.000000E-01  9.084788E-19 -4.905000E-03
       359  1.000000E-01 -1.973915E-18 -4.905000E-03
       360  1.000000E-01 -1.206281E-19 -4.905000E-03
       361  1.000000E-01  9.642602E-19 -4.905000E-03
       362  1.000000E-01  8.350065E-19 -4.905000E-03
       363  1.000000E-01  8.836731E-19 -4.905000E-03
       364  1.000000E-01  5.925024E-18 -4.905000E-03
       365  1.000000E-01 -5.473234E-19 -4.905000E-03
       366  1.000000E-01 -1.855643E-18 -4.905000E-03
       367  1.000000E-01  3.335695E-18 -4.905000E-03
       368  1.000000E-01  1.032270E-18 -4.905000E-03
       369  1.000000E-01  2.522022E-18 -4.905000E-03
       370  1.000000E-01  2.499703E-18 -4.905000E-03
       371  1.000000E-01  1.379194E-18 -4.905000E-03
       372  1.000000E-01  3.642474E-19 -4.905000E-03
       373  1.000000E-01 -1.410093E-18 -4.905000E-03
       374  1.000000E-01 -1.347024E-18 -4.905000E-03
       375  1.000000E-01 -1.252750E-18 -4.905000E-03
       376  1.000000E-01 -6.723378E-19 -4.905000E-03
       377  1.000000E-01  4.278308E-19 -4.905000E-03
       378  1.000000E-01 -9.936466E-20 -4.905000E-03
       379  1.000000E-01  2.077612E-18 -4.905000E-03
       380  1.000000E-01  3.133861E-19 -4.905000E-03
       381  1.000000E-01  1.964361E-20 -4.905000E-03
       382  1.000000E-01  1.382205E-18 -4.905000E-03
       383  1.000000E-01  1.337696E-19 -4.905000E-03
       384  1.000000E-01  8.478122E-19 -4.905000E-03
       385  1.000000E-01 -3.726155E-18 -4.905000E-03
       386  1.000000E-01  1.277814E-19 -4.905000E-03
       387  1.000000E-01  6.649636E-19 -4.905000E-03
       388  1.000000E-01 -1.727093E-18 -4.905000E-03
       389  1.000000E-01 -1.182564E-18 -4.905000E-03
       390  1.000000E-01 -5.484714E-20 -4.905000E-03
       391  1.000000E-01  4.310457E-19 -4.905000E-03
       392  1.000000E-01 -4.815501E-19 -4.905000E-03
       393  1.000000E-01 -1.307057E-18 -4.905000E-03
       394  1.000000E-01 -6.871315E-19 -4.905000E-03
       395  1.000000E-01 -3.267024E-18 -4.905000E-03
       396  1.000000E-01 -4.610539E-19 -4.905000E-03
       397  1.000000E-01 -7.220189E-19 -4.905000E-03
       398  1.000000E-01 -5.214890E-18 -4.905000E-03
       399  1.000000E-01 -1.816379E-18 -4.905000E-03
       400  1.000000E-01 -2.520603E-19 -4.905000E-03
       401  1.000000E-01 -3.647431E-18 -4.905000E-03
       402  1.000000E-01  9.689330E-19 -4.905000E-03
       403  1.000000E-01 -3.124636E-18 -4.905000E-03
       404  1.000000E-01 -8.202768E-19 -4.905000E-03
       405  1.000000E-01  4.422898E-19 -4.905000E-03
       406  1.000000E-01 -7.393373E-19 -4.905000E-03
       407  1.000000E-01 -7.800210E-19 -4.905000E-03
       408  1.000000E-01 -1.521002E-18 -4.905000E-03
       409  1.000000E-01 -1.435059E-18 -4.905000E-03
       410  1.000000E-01 -1.471677E-18 -4.905000E-03
       411  1.000000E-01 -1.509938E-18 -4.905000E-03
       412  1.000000E-01 -5.520475E-20 -4.905000E-03
       413  1.000000E-01  2.036139E-18 -4.905000E-03
       414  1.000000E-01 -6.168868E-19 -4.905000E-03
       415  1.000000E-01 -1.970600E-18 -4.905000E-03
       416  1.000000E-01  2.812414E-19 -4.905000E-03
       417  1.000000E-01 -1.648994E-18 -4.905000E-03
       418  1.000000E-01  7.626153E-19 -4.905000E-03
       419  1.000000E-01  1.219731E-18 -4.905000E-03
       420  1.000000E-01  7.485529E-20 -4.905000E-03
       421  1.000000E-01  5.582210E-19 -4.905000E-03
       422  1.000000E-01 -4.311884E-19 -4.905000E-03
       423  1.000000E-01 -7.961580E-19 -4.905000E-03
       424  1.000000E-01 -8.742778E-19 -4.905000E-03
       425  1.000000E-01  1.112589E-19 -4.905000E-03
       426  1.000000E-01  1.955764E-19 -4.905000E-03
       427  1.000000E-01  3.639446E-18 -4.905000E-03
       428  1.000000E-01 -7.515894E-19 -4.905000E-03
       429  1.000000E-01  4.653046E-19 -4.905000E-03
       430  1.000000E-01 -9.624905E-19 -4.905000E-03
       431  1.000000E-01  1.337322E-18 -4.905000E-03
       432  1.000000E-01  2.313244E-18 -4.905000E-03
       433  1.000000E-01  3.260826E-18 -4.905000E-03
       434  1.000000E-01  9.784071E-19 -4.905000E-03
       435  1.000000E-01 -1.815578E-19 -4.905000E-03
       436  1.000000E-01  1.178196E-19 -4.905000E-03
       437  1.000000E-01  2.604331E-18 -4.905000E-03
       438  1.000000E-01  2.398102E-19 -4.905000E-03
       439  1.000000E-01 -7.522758E-19 -4.905000E-03
       440  1.000000E-01 -9.807698E-19 -4.905000E-03
       441  1.000000E-01 -6.583154E-19 -4.905000E-03
       442  1.000000E-01 -2.739325E-19 -4.905000E-03
       443  1.000000E-01 -2.261190E-18 -4.905000E-03
       444  1.000000E-01  6.681356E-19 -4.905000E-03
       445  1.000000E-01 -5.754407E-19 -4.905000E-03
       446  1.000000E-01  2.025286E-18 -4.905000E-03
       447  1.000000E-01 -9.651166E-20 -4.905000E-03
       448  1.000000E-01 -2.244158E-18 -4.905000E-03
       449  1.000000E-01  5.415064E-19 -4.905000E-03
       450  1.000000E-01 -2.810808E-19 -4.905000E-03
       451  1.000000E-01 -1.697279E-18 -4.905000E-03
       452  1.000000E-01 -1.721768E-18 -4.905000E-03
       453  1.000000E-01 -2.382842E-18 -4.905000E-03
       454  1.000000E-01 -6.358823E-19 -4.905000E-03
       455  1.000000E-01 -2.203467E-18 -4.905000E-03
       456  1.000000E-01  2.290839E-19 -4.905000E-03
       457  1.000000E-01 -8.250430E-19 -4.905000E-03
       458  1.000000E-01 -1.302752E-18 -4.905000E-03
       459  1.000000E-01 -8.838791E-19 -4.905000E-03
       460  1.000000E-01 -1.692668E-19 -4.905000E-03
       461  1.000000E-01 -1.095574E-18 -4.905000E-03
       462  1.000000E-01 -1.090470E-18 -4.905000E-03
       463  1.000000E-01 -2.649963E-18 -4.905000E-03
       464  1.000000E-01 -7.046770E-19 -4.905000E-03
       465  1.000000E-01  4.560873E-19 -4.905000E-03
       466  1.000000E-01 -6.385868E-20 -4.905000E-03
       467  1.000000E-01 -6.783649E-19 -4.905000E-03
       468  1.000000E-01 -5.348099E-18 -4.905000E-03
       469  1.000000E-01  6.660987E-19 -4.905000E-03
       470  1.000000E-01 -1.562031E-18 -4.905000E-03
       471  1.000000E-01 -7.350741E-19 -4.905000E-03
       472  1.000000E-01 -1.387021E-18 -4.905000E-03
       473  1.000000E-01 -6.562997E-19 -4.905000E-03
       474  1.000000E-01  1.379957E-18 -4.905000E-03
       475  1.000000E-01 -8.754918E-19 -4.905000E-03
       476  1.000000E-01  3.674125E-19 -4.905000E-03
       477  1.000000E-01 -1.080277E-19 -4.905000E-03
       478  1.000000E-01  1.647314E-18 -4.905000E-03
       479  1.000000E-01  6.952765E-19 -4.905000E-03
       480  1.000000E-01 -1.000299E-19 -4.905000E-03
       481  1.000000E-01  6.825799E-19 -4.905000E-03
       482  1.000000E-01 -1.343011E-18 -4.905000E-03
       483  1.000000E-01 -1.286218E-18 -4.905000E-03
       484  1.000000E-01 -1.988641E-18 -4.905000E-03
       485  1.000000E-01 -1.708090E-20 -4.905000E-03
       486  1.000000E-01  1.461818E-18 -4.905000E-03
       487  1.000000E-01 -1.189827E-18 -4.905000E-03
       488  1.000000E-01  5.119717E-19 -4.905000E-03
       489  1.000000E-01  2.133262E-18 -4.905000E-03
       490  1.000000E-01  8.760009E-19 -4.905000E-03
       491  1.000000E-01  1.116245E-18 -4.905000E-03
       492  1.000000E-01  2.697536E-18 -4.905000E-03
       493  1.000000E-01  4.654949E-19 -4.905000E-03
       494  1.000000E-01  5.030725E-19 -4.905000E-03
       495  1.000000E-01  6.747789E-19 -4.905000E-03
       496  1.000000E-01  1.463829E-18 -4.905000E-03
       497  1.000000E-01 -7.451065E-19 -4.905000E-03
       498  1.000000E-01 -6.241829E-19 -4.905000E-03
       499  1.000000E-01 -2.553570E-18 -4.905000E-03
       500  1.000000E-01 -2.009245E-19 -4.905000E-03
       501  1.000000E-01 -9.296677E-19 -4.905000E-03
       502  1.000000E-01  2.112459E-18 -4.905000E-03
       503  1.000000E-01  1.743221E-19 -4.905000E-03
       504  1.000000E-01  2.016726E-18 -4.905000E-03
       505  1.000000E-01 -4.101053E-18 -4.905000E-03
       506  1.000000E-01 -1.010035E-18 -4.905000E-03
       507  1.000000E-01  1.079134E-18 -4.905000E-03
       508  1.000000E-01  3.462838E-19 -4.905000E-03
       509  1.000000E-01  1.479742E-18 -4.905000E-03
       510  1.000000E-01 -1.246630E-19 -4.905000E-03
       511  1.000000E-01 -3.858755E-18 -4.905000E-03
       512  1.000000E-01  3.969259E-18 -4.905000E-03
       513  1.000000E-01  7.981324E-19 -4.905000E-03
       514  1.000000E-01 -1.093452E-19 -4.905000E-03
       515  1.000000E-01  1.201489E-18 -4.905000E-03
       516  1.000000E-01 -2.736110E-19 -4.905000E-03
       517  1.000000E-01  5.612485E-19 -4.905000E-03
       518  1.000000E-01  5.557263E-19 -4.905000E-03
       519  1.000000E-01  1.768834E-19 -4.905000E-03
       520  1.000000E-01 -3.415008E-19 -4.905000E-03
       521  1.000000E-01 -5.858198E-19 -4.905000E-03
       522  1.000000E-01 -7.151791E-19 -4.905000E-03
       523  1.000000E-01  1.584167E-18 -4.905000E-03
       524  1.000000E-01  1.329943E-18 -4.905000E-03
       525  1.000000E-01  1.330712E-18 -4.905000E-03
       526  1.000000E-01  4.885969E-19 -4.905000E-03
       527  1.000000E-01  7.851138E-19 -4.905000E-03
       528  1.000000E-01 -1.913321E-18 -4.905000E-03
       529  1.000000E-01  8.973814E-19 -4.905000E-03
       530  1.000000E-01  5.038154E-19 -4.905000E-03
       531  1.000000E-01  1.870470E-18 -4.905000E-03
       532  1.000000E-01  6.750649E-19 -4.905000E-03
       533  1.000000E-01  9.731342E-19 -4.905000E-03
       534  1.000000E-01 -2.020031E-19 -4.905000E-03
       535  1.000000E-01 -9.874773E-21 -4.905000E-03
       536  1.000000E-01 -1.657542E-19 -4.905000E-03
       537  1.000000E-01  5.788983E-19 -4.905000E-03
       538  1.000000E-01 -2.200715E-19 -4.905000E-03
       539  1.000000E-01 -4.998721E-19 -4.905000E-03
       540  1.000000E-01  1.237317E-18 -4.905000E-03
       541  1.000000E-01 -9.088610E-20 -4.905000E-03
       542  1.000000E-01 -1.050044E-18 -4.905000E-03
       543  1.000000E-01 -6.170186E-19 -4.905000E-03
       544  1.000000E-01  1.119179E-18 -4.905000E-03
       545  1.000000E-01 -1.380486E-20 -4.905000E-03
       546  1.000000E-01  1.626006E-18 -4.905000E-03
       547  1.000000E-01  1.525977E-18 -4.905000E-03
       548  1.000000E-01  1.097044E-18 -4.905000E-03
       549  1.000000E-01 -1.667172E-18 -4.905000E-03
       550  1.000000E-01 -1.988585E-19 -4.905000E-03
       551  1.000000E-01  1.702008E-18 -4.905000E-03
       552  1.000000E-01  1.882181E-18 -4.905000E-03
       553  1.000000E-01  3.432023E-18 -4.905000E-03
       554  1.000000E-01  2.833894E-18 -4.905000E-03
       555  1.000000E-01 -6.123772E-19 -4.905000E-03
       556  1.000000E-01  8.206635E-19 -4.905000E-03
       557  1.000000E-01  5.628950E-19 -4.905000E-03
       558  1.000000E-01  1.151797E-18 -4.905000E-03
       559  1.000000E-01 -1.382975E-18 -4.905000E-03
       560  1.000000E-01  1.538332E-18 -4.905000E-03
       561  1.000000E-01  1.329919E-19 -4.905000E-03
       562  1.000000E-01  6.557520E-19 -4.905000E-03
       563  1.000000E-01  6.368719E-19 -4.905000E-03