    1C
    1UModel: beam     Date: 10-Mar-1998                                 
    1UUSER                                                              
    1UDATE              23.february.2024                                
    1UTIME              17:09:07                                        
    1UHOST                                                              
    1UPGM               CalculiX                                        
    1UVERSION           Version DEVELOPMENT                             
    1UCOMPILETIME       Fri Feb 23 17:06:32 CET 2024                    
    1UDIR                                                               
    1UDBN                                                               
    1UMAT    1EL                                                        
    2C                            81                                     1
 -1         1 0.00000E+00 0.00000E+00 0.00000E+00
 -1         2 1.00000E+00 0.00000E+00 0.00000E+00
 -1         3 1.00000E+00 1.50000E+00 0.00000E+00
 -1         4 0.00000E+00 1.50000E+00 0.00000E+00
 -1         5 0.00000E+00 0.00000E+00 8.00000E+00
 -1         6 1.00000E+00 0.00000E+00 8.00000E+00
 -1         7 1.00000E+00 1.50000E+00 8.00000E+00
 -1         8 0.00000E+00 1.50000E+00 8.00000E+00
 -1        10 5.00000E-01 0.00000E+00 0.00000E+00
 -1        13 1.00000E+00 7.50000E-01 0.00000E+00
 -1        16 5.00000E-01 1.50000E+00 0.00000E+00
 -1        19 0.00000E+00 7.50000E-01 0.00000E+00
 -1        22 5.00000E-01 0.00000E+00 8.00000E+00
 -1        25 1.00000E+00 7.50000E-01 8.00000E+00
 -1        28 5.00000E-01 1.50000E+00 8.00000E+00
 -1        31 0.00000E+00 7.50000E-01 8.00000E+00
 -1        34 1.00000E+00 0.00000E+00 1.00000E+00
 -1        36 1.00000E+00 0.00000E+00 2.00000E+00
 -1        38 1.00000E+00 0.00000E+00 3.00000E+00
 -1        40 1.00000E+00 0.00000E+00 4.00000E+00
 -1        42 1.00000E+00 0.00000E+00 5.00000E+00
 -1        44 1.00000E+00 0.00000E+00 6.00000E+00
 -1        46 1.00000E+00 0.00000E+00 7.00000E+00
 -1        49 0.00000E+00 0.00000E+00 7.00000E+00
 -1        51 0.00000E+00 0.00000E+00 6.00000E+00
 -1        53 0.00000E+00 0.00000E+00 5.00000E+00
 -1        55 0.00000E+00 0.00000E+00 4.00000E+00
 -1        57 0.00000E+00 0.00000E+00 3.00000E+00
 -1        59 0.00000E+00 0.00000E+00 2.00000E+00
 -1        61 0.00000E+00 0.00000E+00 1.00000E+00
 -1        64 1.00000E+00 1.50000E+00 1.00000E+00
 -1        66 1.00000E+00 1.50000E+00 2.00000E+00
 -1        68 1.00000E+00 1.50000E+00 3.00000E+00
 -1        70 1.00000E+00 1.50000E+00 4.00000E+00
 -1        72 1.00000E+00 1.50000E+00 5.00000E+00
 -1        74 1.00000E+00 1.50000E+00 6.00000E+00
 -1        76 1.00000E+00 1.50000E+00 7.00000E+00
 -1        79 0.00000E+00 1.50000E+00 1.00000E+00
 -1        81 0.00000E+00 1.50000E+00 2.00000E+00
 -1        83 0.00000E+00 1.50000E+00 3.00000E+00
 -1        85 0.00000E+00 1.50000E+00 4.00000E+00
 -1        87 0.00000E+00 1.50000E+00 5.00000E+00
 -1        89 0.00000E+00 1.50000E+00 6.00000E+00
 -1        91 0.00000E+00 1.50000E+00 7.00000E+00
 -1        95 5.00000E-01 7.50000E-01 0.00000E+00
 -1       100 5.00000E-01 7.50000E-01 8.00000E+00
 -1       105 5.00000E-01 0.00000E+00 1.00000E+00
 -1       109 5.00000E-01 0.00000E+00 2.00000E+00
 -1       113 5.00000E-01 0.00000E+00 3.00000E+00
 -1       117 5.00000E-01 0.00000E+00 4.00000E+00
 -1       121 5.00000E-01 0.00000E+00 5.00000E+00
 -1       125 5.00000E-01 0.00000E+00 6.00000E+00
 -1       129 5.00000E-01 0.00000E+00 7.00000E+00
 -1       134 1.00000E+00 7.50000E-01 1.00000E+00
 -1       138 1.00000E+00 7.50000E-01 2.00000E+00
 -1       142 1.00000E+00 7.50000E-01 3.00000E+00
 -1       146 1.00000E+00 7.50000E-01 4.00000E+00
 -1       150 1.00000E+00 7.50000E-01 5.00000E+00
 -1       154 1.00000E+00 7.50000E-01 6.00000E+00
 -1       158 1.00000E+00 7.50000E-01 7.00000E+00
 -1       163 5.00000E-01 1.50000E+00 1.00000E+00
 -1       167 5.00000E-01 1.50000E+00 2.00000E+00
 -1       171 5.00000E-01 1.50000E+00 3.00000E+00
 -1       175 5.00000E-01 1.50000E+00 4.00000E+00
 -1       179 5.00000E-01 1.50000E+00 5.00000E+00
 -1       183 5.00000E-01 1.50000E+00 6.00000E+00
 -1       187 5.00000E-01 1.50000E+00 7.00000E+00
 -1       192 0.00000E+00 7.50000E-01 1.00000E+00
 -1       196 0.00000E+00 7.50000E-01 2.00000E+00
 -1       200 0.00000E+00 7.50000E-01 3.00000E+00
 -1       204 0.00000E+00 7.50000E-01 4.00000E+00
 -1       208 0.00000E+00 7.50000E-01 5.00000E+00
 -1       212 0.00000E+00 7.50000E-01 6.00000E+00
 -1       216 0.00000E+00 7.50000E-01 7.00000E+00
 -1       222 5.00000E-01 7.50000E-01 1.00000E+00
 -1       228 5.00000E-01 7.50000E-01 2.00000E+00
 -1       234 5.00000E-01 7.50000E-01 3.00000E+00
 -1       240 5.00000E-01 7.50000E-01 4.00000E+00
 -1       246 5.00000E-01 7.50000E-01 5.00000E+00
 -1       252 5.00000E-01 7.50000E-01 6.00000E+00
 -1       258 5.00000E-01 7.50000E-01 7.00000E+00
 -3
    3C                            32                                     1
 -1         1    1    0    1
 -2         1        10        95        19        61       105       222       192
 -1         2    1    0    1
 -2        10         2        13        95       105        34       134       222
 -1         3    1    0    1
 -2        19        95        16         4       192       222       163        79
 -1         4    1    0    1
 -2        95        13         3        16       222       134        64       163
 -1         5    1    0    1
 -2        61       105       222       192        59       109       228       196
 -1         6    1    0    1
 -2       105        34       134       222       109        36       138       228
 -1         7    1    0    1
 -2       192       222       163        79       196       228       167        81
 -1         8    1    0    1
 -2       222       134        64       163       228       138        66       167
 -1         9    1    0    1
 -2        59       109       228       196        57       113       234       200
 -1        10    1    0    1
 -2       109        36       138       228       113        38       142       234
 -1        11    1    0    1
 -2       196       228       167        81       200       234       171        83
 -1        12    1    0    1
 -2       228       138        66       167       234       142        68       171
 -1        13    1    0    1
 -2        57       113       234       200        55       117       240       204
 -1        14    1    0    1
 -2       113        38       142       234       117        40       146       240
 -1        15    1    0    1
 -2       200       234       171        83       204       240       175        85
 -1        16    1    0    1
 -2       234       142        68       171       240       146        70       175
 -1        17    1    0    1
 -2        55       117       240       204        53       121       246       208
 -1        18    1    0    1
 -2       117        40       146       240       121        42       150       246
 -1        19    1    0    1
 -2       204       240       175        85       208       246       179        87
 -1        20    1    0    1
 -2       240       146        70       175       246       150        72       179
 -1        21    1    0    1
 -2        53       121       246       208        51       125       252       212
 -1        22    1    0    1
 -2       121        42       150       246       125        44       154       252
 -1        23    1    0    1
 -2       208       246       179        87       212       252       183        89
 -1        24    1    0    1
 -2       246       150        72       179       252       154        74       183
 -1        25    1    0    1
 -2        51       125       252       212        49       129       258       216
 -1        26    1    0    1
 -2       125        44       154       252       129        46       158       258
 -1        27    1    0    1
 -2       212       252       183        89       216       258       187        91
 -1        28    1    0    1
 -2       252       154        74       183       258       158        76       187
 -1        29    1    0    1
 -2        49       129       258       216         5        22       100        31
 -1        30    1    0    1
 -2       129        46       158       258        22         6        25       100
 -1        31    1    0    1
 -2       216       258       187        91        31       100        28         8
 -1        32    1    0    1
 -2       258       158        76       187       100        25         7        28
 -3
    1PSTEP                         1           1           2          
  100CL  111 0.00000E+00          81                     3   11           1
 -4  NORM        4    1
 -5  NORMX       1    2    1    0
 -5  NORMY       1    2    2    0
 -5  NORMZ       1    2    3    0
 -5  ALL         1    2    0    0    1ALL
 -1         1 0.00000E+00 0.00000E+00 0.00000E+00
 -1         2 0.00000E+00 0.00000E+00 0.00000E+00
 -1         3 0.00000E+00 0.00000E+00 0.00000E+00
 -1         4 0.00000E+00 0.00000E+00 0.00000E+00
 -1         5-5.77350E-01-5.77350E-01 5.77350E-01
 -1         6 5.77350E-01-5.77350E-01 5.77350E-01
 -1         7 5.77350E-01 5.77350E-01 5.77350E-01
 -1         8-5.77350E-01 5.77350E-01 5.77350E-01
 -1        10 0.00000E+00 0.00000E+00 0.00000E+00
 -1        13 0.00000E+00 0.00000E+00 0.00000E+00
 -1        16 0.00000E+00 0.00000E+00 0.00000E+00
 -1        19 0.00000E+00 0.00000E+00 0.00000E+00
 -1        22 0.00000E+00-7.07107E-01 7.07107E-01
 -1        25 7.07107E-01 0.00000E+00 7.07107E-01
 -1        28 0.00000E+00 7.07107E-01 7.07107E-01
 -1        31-7.07107E-01 0.00000E+00 7.07107E-01
 -1        34 7.07107E-01-7.07107E-01 0.00000E+00
 -1        36 7.07107E-01-7.07107E-01 0.00000E+00
 -1        38 7.07107E-01-7.07107E-01 0.00000E+00
 -1        40 7.07107E-01-7.07107E-01 0.00000E+00
 -1        42 7.07107E-01-7.07107E-01 0.00000E+00
 -1        44 7.07107E-01-7.07107E-01 0.00000E+00
 -1        46 7.07107E-01-7.07107E-01 0.00000E+00
 -1        49-7.07107E-01-7.07107E-01 0.00000E+00
 -1        51-7.07107E-01-7.07107E-01 0.00000E+00
 -1        53-7.07107E-01-7.07107E-01 0.00000E+00
 -1        55-7.07107E-01-7.07107E-01 0.00000E+00
 -1        57-7.07107E-01-7.07107E-01 0.00000E+00
 -1        59-7.07107E-01-7.07107E-01 0.00000E+00
 -1        61-7.07107E-01-7.07107E-01 0.00000E+00
 -1        64 7.07107E-01 7.07107E-01 0.00000E+00
 -1        66 7.07107E-01 7.07107E-01 0.00000E+00
 -1        68 7.07107E-01 7.07107E-01 0.00000E+00
 -1        70 7.07107E-01 7.07107E-01 0.00000E+00
 -1        72 7.07107E-01 7.07107E-01 0.00000E+00
 -1        74 7.07107E-01 7.07107E-01 0.00000E+00
 -1        76 7.07107E-01 7.07107E-01 0.00000E+00
 -1        79-7.07107E-01 7.07107E-01 0.00000E+00
 -1        81-7.07107E-01 7.07107E-01 0.00000E+00
 -1        83-7.07107E-01 7.07107E-01 0.00000E+00
 -1        85-7.07107E-01 7.07107E-01 0.00000E+00
 -1        87-7.07107E-01 7.07107E-01 0.00000E+00
 -1        89-7.07107E-01 7.07107E-01 0.00000E+00
 -1        91-7.07107E-01 7.07107E-01 0.00000E+00
 -1        95 0.00000E+00 0.00000E+00 0.00000E+00
 -1       100 0.00000E+00 0.00000E+00 1.00000E+00
 -1       105 0.00000E+00-1.00000E+00 0.00000E+00
 -1       109 0.00000E+00-1.00000E+00 0.00000E+00
 -1       113 0.00000E+00-1.00000E+00 0.00000E+00
 -1       117 0.00000E+00-1.00000E+00 0.00000E+00
 -1       121 0.00000E+00-1.00000E+00 0.00000E+00
 -1       125 0.00000E+00-1.00000E+00 0.00000E+00
 -1       129 0.00000E+00-1.00000E+00 0.00000E+00
 -1       134 1.00000E+00 0.00000E+00 0.00000E+00
 -1       138 1.00000E+00 0.00000E+00 0.00000E+00
 -1       142 1.00000E+00 0.00000E+00 0.00000E+00
 -1       146 1.00000E+00 0.00000E+00 0.00000E+00
 -1       150 1.00000E+00 0.00000E+00 0.00000E+00
 -1       154 1.00000E+00 0.00000E+00 0.00000E+00
 -1       158 1.00000E+00 0.00000E+00 0.00000E+00
 -1       163 0.00000E+00 1.00000E+00 0.00000E+00
 -1       167 0.00000E+00 1.00000E+00 0.00000E+00
 -1       171 0.00000E+00 1.00000E+00 0.00000E+00
 -1       175 0.00000E+00 1.00000E+00 0.00000E+00
 -1       179 0.00000E+00 1.00000E+00 0.00000E+00
 -1       183 0.00000E+00 1.00000E+00 0.00000E+00
 -1       187 0.00000E+00 1.00000E+00 0.00000E+00
 -1       192-1.00000E+00 0.00000E+00 0.00000E+00
 -1       196-1.00000E+00 0.00000E+00 0.00000E+00
 -1       200-1.00000E+00 0.00000E+00 0.00000E+00
 -1       204-1.00000E+00 0.00000E+00 0.00000E+00
 -1       208-1.00000E+00 0.00000E+00 0.00000E+00
 -1       212-1.00000E+00 0.00000E+00 0.00000E+00
 -1       216-1.00000E+00 0.00000E+00 0.00000E+00
 -1       222 0.00000E+00 0.00000E+00 0.00000E+00
 -1       228 0.00000E+00 0.00000E+00 0.00000E+00
 -1       234 0.00000E+00 0.00000E+00 0.00000E+00
 -1       240 0.00000E+00 0.00000E+00 0.00000E+00
 -1       246 0.00000E+00 0.00000E+00 0.00000E+00
 -1       252 0.00000E+00 0.00000E+00 0.00000E+00
 -1       258 0.00000E+00 0.00000E+00 0.00000E+00
 -3
    1PSTEP                         2           1           2          
  100CL  112 15717.62535          81                     3   12           1
 -4  SENFREQ     2    1
 -5  DFDN        1    1    1    0
 -5  DFDNFIL     1    1    2    0
 -1         1 0.00000E+00 0.00000E+00
 -1         2 0.00000E+00 0.00000E+00
 -1         3 0.00000E+00 0.00000E+00
 -1         4 0.00000E+00 0.00000E+00
 -1         5-1.71427E+09-8.64390E-02
 -1         6-1.71427E+09-8.64389E-02
 -1         7-1.71426E+09-8.64388E-02
 -1         8-1.71427E+09-8.64389E-02
 -1        10 0.00000E+00 0.00000E+00
 -1        13 0.00000E+00 0.00000E+00
 -1        16 0.00000E+00 0.00000E+00
 -1        19 0.00000E+00 0.00000E+00
 -1        22-2.13985E+09-9.79339E-02
 -1        25-2.12715E+09-1.08261E-01
 -1        28-2.13985E+09-9.79338E-02
 -1        31-2.12717E+09-1.08261E-01
 -1        34 6.21831E+09 2.26840E-01
 -1        36 2.03402E+09 1.67155E-01
 -1        38 1.06404E+09 5.37166E-02
 -1        40 2.90696E+08 1.36118E-02
 -1        42-3.55139E+08-2.12535E-02
 -1        44-9.52407E+08-5.38169E-02
 -1        46-1.58087E+09-8.99752E-02
 -1        49-1.58088E+09-8.99753E-02
 -1        51-9.52413E+08-5.38170E-02
 -1        53-3.55142E+08-2.12536E-02
 -1        55 2.90695E+08 1.36118E-02
 -1        57 1.06404E+09 5.37166E-02
 -1        59 2.03402E+09 1.67155E-01
 -1        61 6.21831E+09 2.26840E-01
 -1        64 6.21831E+09 2.26840E-01
 -1        66 2.03402E+09 1.67155E-01
 -1        68 1.06404E+09 5.37166E-02
 -1        70 2.90698E+08 1.36118E-02
 -1        72-3.55136E+08-2.12535E-02
 -1        74-9.52398E+08-5.38168E-02
 -1        76-1.58087E+09-8.99751E-02
 -1        79 6.21831E+09 2.26840E-01
 -1        81 2.03402E+09 1.67155E-01
 -1        83 1.06404E+09 5.37166E-02
 -1        85 2.90696E+08 1.36118E-02
 -1        87-3.55141E+08-2.12535E-02
 -1        89-9.52408E+08-5.38169E-02
 -1        91-1.58087E+09-8.99752E-02
 -1        95 0.00000E+00 0.00000E+00
 -1       100-3.22868E+09-1.21828E-01
 -1       105 2.68829E+09 2.48240E-01
 -1       109 9.80927E+08 1.88239E-01
 -1       113 4.37094E+08 5.99119E-02
 -1       117-9.52118E+07 1.48779E-02
 -1       121-6.83386E+08-2.44746E-02
 -1       125-1.38031E+09-6.14135E-02
 -1       129-2.22579E+09-1.02592E-01
 -1       134 1.09801E+10 2.85802E-01
 -1       138 3.46176E+09 2.17999E-01
 -1       142 1.83092E+09 6.93291E-02
 -1       146 5.59576E+08 1.78797E-02
 -1       150-4.54796E+08-2.66773E-02
 -1       154-1.34245E+09-6.80691E-02
 -1       158-2.24103E+09-1.14279E-01
 -1       163 2.68829E+09 2.48240E-01
 -1       167 9.80927E+08 1.88239E-01
 -1       171 4.37095E+08 5.99119E-02
 -1       175-9.52123E+07 1.48779E-02
 -1       179-6.83384E+08-2.44745E-02
 -1       183-1.38031E+09-6.14134E-02
 -1       187-2.22579E+09-1.02592E-01
 -1       192 1.09801E+10 2.85802E-01
 -1       196 3.46176E+09 2.17999E-01
 -1       200 1.83092E+09 6.93291E-02
 -1       204 5.59574E+08 1.78797E-02
 -1       208-4.54803E+08-2.66773E-02
 -1       212-1.34245E+09-6.80692E-02
 -1       216-2.24105E+09-1.14279E-01
 -1       222 0.00000E+00 0.00000E+00
 -1       228 0.00000E+00 0.00000E+00
 -1       234 0.00000E+00 0.00000E+00
 -1       240 0.00000E+00 0.00000E+00
 -1       246 0.00000E+00 0.00000E+00
 -1       252 0.00000E+00 0.00000E+00
 -1       258 0.00000E+00 0.00000E+00
 -3
    1PSTEP                         3           1           2          
  100CL  113 21366.30468          81                     3   13           1
 -4  SENFREQ     2    1
 -5  DFDN        1    1    1    0
 -5  DFDNFIL     1    1    2    0
 -1         1 0.00000E+00 0.00000E+00
 -1         2 0.00000E+00 0.00000E+00
 -1         3 0.00000E+00 0.00000E+00
 -1         4 0.00000E+00 0.00000E+00
 -1         5-3.14112E+09-8.56915E-02
 -1         6-3.14112E+09-8.56915E-02
 -1         7-3.14112E+09-8.56915E-02
 -1         8-3.14112E+09-8.56916E-02
 -1        10 0.00000E+00 0.00000E+00
 -1        13 0.00000E+00 0.00000E+00
 -1        16 0.00000E+00 0.00000E+00
 -1        19 0.00000E+00 0.00000E+00
 -1        22-3.94532E+09-9.71114E-02
 -1        25-3.86135E+09-1.07277E-01
 -1        28-3.94533E+09-9.71114E-02
 -1        31-3.86134E+09-1.07277E-01
 -1        34 1.06625E+10 2.29899E-01
 -1        36 3.62232E+09 1.67427E-01
 -1        38 1.88195E+09 5.44299E-02
 -1        40 4.97843E+08 1.39058E-02
 -1        42-6.71917E+08-2.11624E-02
 -1        44-1.76259E+09-5.36972E-02
 -1        46-2.90864E+09-8.94294E-02
 -1        49-2.90865E+09-8.94295E-02
 -1        51-1.76260E+09-5.36972E-02
 -1        53-6.71918E+08-2.11624E-02
 -1        55 4.97842E+08 1.39058E-02
 -1        57 1.88195E+09 5.44299E-02
 -1        59 3.62232E+09 1.67427E-01
 -1        61 1.06625E+10 2.29899E-01
 -1        64 1.06625E+10 2.29899E-01
 -1        66 3.62232E+09 1.67427E-01
 -1        68 1.88195E+09 5.44299E-02
 -1        70 4.97843E+08 1.39058E-02
 -1        72-6.71917E+08-2.11624E-02
 -1        74-1.76259E+09-5.36972E-02
 -1        76-2.90865E+09-8.94294E-02
 -1        79 1.06625E+10 2.29899E-01
 -1        81 3.62232E+09 1.67427E-01
 -1        83 1.88195E+09 5.44299E-02
 -1        85 4.97843E+08 1.39058E-02
 -1        87-6.71919E+08-2.11624E-02
 -1        89-1.76260E+09-5.36972E-02
 -1        91-2.90865E+09-8.94295E-02
 -1        95 0.00000E+00 0.00000E+00
 -1       100-5.88674E+09-1.20736E-01
 -1       105 2.24957E+10 2.67100E-01
 -1       109 7.05395E+09 1.93792E-01
 -1       113 3.74047E+09 6.30474E-02
 -1       117 1.20095E+09 1.63254E-02
 -1       121-7.91205E+08-2.39668E-02
 -1       125-2.48157E+09-6.12010E-02
 -1       129-4.14062E+09-1.01993E-01
 -1       134 4.45255E+09 2.67316E-01
 -1       138 1.57469E+09 2.09909E-01
 -1       142 6.75299E+08 6.65912E-02
 -1       146-2.35621E+08 1.65015E-02
 -1       150-1.27968E+09-2.71970E-02
 -1       154-2.54042E+09-6.80306E-02
 -1       158-4.07497E+09-1.13533E-01
 -1       163 2.24957E+10 2.67100E-01
 -1       167 7.05395E+09 1.93792E-01
 -1       171 3.74047E+09 6.30474E-02
 -1       175 1.20096E+09 1.63254E-02
 -1       179-7.91201E+08-2.39668E-02
 -1       183-2.48157E+09-6.12010E-02
 -1       187-4.14062E+09-1.01993E-01
 -1       192 4.45255E+09 2.67316E-01
 -1       196 1.57469E+09 2.09909E-01
 -1       200 6.75298E+08 6.65912E-02
 -1       204-2.35622E+08 1.65015E-02
 -1       208-1.27968E+09-2.71970E-02
 -1       212-2.54042E+09-6.80306E-02
 -1       216-4.07498E+09-1.13533E-01
 -1       222 0.00000E+00 0.00000E+00
 -1       228 0.00000E+00 0.00000E+00
 -1       234 0.00000E+00 0.00000E+00
 -1       240 0.00000E+00 0.00000E+00
 -1       246 0.00000E+00 0.00000E+00
 -1       252 0.00000E+00 0.00000E+00
 -1       258 0.00000E+00 0.00000E+00
 -3
    1PSTEP                         4           1           2          
  100CL  114 93946.12418          81                     3   14           1
 -4  SENFREQ     2    1
 -5  DFDN        1    1    1    0
 -5  DFDNFIL     1    1    2    0
 -1         1 0.00000E+00 0.00000E+00
 -1         2 0.00000E+00 0.00000E+00
 -1         3 0.00000E+00 0.00000E+00
 -1         4 0.00000E+00 0.00000E+00
 -1         5-6.80177E+10-9.40994E-02
 -1         6-6.80177E+10-9.40994E-02
 -1         7-6.80177E+10-9.40994E-02
 -1         8-6.80177E+10-9.40994E-02
 -1        10 0.00000E+00 0.00000E+00
 -1        13 0.00000E+00 0.00000E+00
 -1        16 0.00000E+00 0.00000E+00
 -1        19 0.00000E+00 0.00000E+00
 -1        22-7.39565E+10-1.06586E-01
 -1        25-4.51246E+10-1.14904E-01
 -1        28-7.39565E+10-1.06586E-01
 -1        31-4.51246E+10-1.14904E-01
 -1        34 1.62113E+11 1.98485E-01
 -1        36 6.73625E+10 1.55671E-01
 -1        38 3.82199E+10 5.67950E-02
 -1        40 3.07516E+09 3.28105E-03
 -1        42-3.21834E+10-5.08014E-02
 -1        44-6.21587E+10-9.53880E-02
 -1        46-8.23177E+10-1.20167E-01
 -1        49-8.23177E+10-1.20167E-01
 -1        51-6.21587E+10-9.53880E-02
 -1        53-3.21834E+10-5.08015E-02
 -1        55 3.07516E+09 3.28105E-03
 -1        57 3.82199E+10 5.67950E-02
 -1        59 6.73625E+10 1.55671E-01
 -1        61 1.62113E+11 1.98485E-01
 -1        64 1.62113E+11 1.98485E-01
 -1        66 6.73625E+10 1.55671E-01
 -1        68 3.82200E+10 5.67950E-02
 -1        70 3.07516E+09 3.28106E-03
 -1        72-3.21833E+10-5.08014E-02
 -1        74-6.21587E+10-9.53880E-02
 -1        76-8.23177E+10-1.20167E-01
 -1        79 1.62113E+11 1.98485E-01
 -1        81 6.73625E+10 1.55671E-01
 -1        83 3.82200E+10 5.67950E-02
 -1        85 3.07516E+09 3.28106E-03
 -1        87-3.21833E+10-5.08014E-02
 -1        89-6.21587E+10-9.53880E-02
 -1        91-8.23177E+10-1.20167E-01
 -1        95 0.00000E+00 0.00000E+00
 -1       100-2.91976E+10-1.28117E-01
 -1       105 1.48288E+11 2.21378E-01
 -1       109 3.35017E+10 1.75450E-01
 -1       113 5.02312E+09 6.27091E-02
 -1       117-3.20769E+10 2.13077E-03
 -1       121-6.92540E+10-5.91062E-02
 -1       125-1.00867E+11-1.09566E-01
 -1       129-1.22511E+11-1.37471E-01
 -1       134 2.14455E+11 2.44254E-01
 -1       138 1.10617E+11 2.01565E-01
 -1       142 7.65535E+10 7.39756E-02
 -1       146 3.52274E+10 6.67329E-03
 -1       150-5.96017E+09-6.13563E-02
 -1       154-4.09552E+10-1.17365E-01
 -1       158-6.40756E+10-1.48590E-01
 -1       163 1.48288E+11 2.21378E-01
 -1       167 3.35017E+10 1.75450E-01
 -1       171 5.02313E+09 6.27091E-02
 -1       175-3.20769E+10 2.13077E-03
 -1       179-6.92539E+10-5.91062E-02
 -1       183-1.00867E+11-1.09566E-01
 -1       187-1.22510E+11-1.37471E-01
 -1       192 2.14455E+11 2.44254E-01
 -1       196 1.10617E+11 2.01565E-01
 -1       200 7.65535E+10 7.39756E-02
 -1       204 3.52273E+10 6.67329E-03
 -1       208-5.96018E+09-6.13563E-02
 -1       212-4.09552E+10-1.17365E-01
 -1       216-6.40756E+10-1.48590E-01
 -1       222 0.00000E+00 0.00000E+00
 -1       228 0.00000E+00 0.00000E+00
 -1       234 0.00000E+00 0.00000E+00
 -1       240 0.00000E+00 0.00000E+00
 -1       246 0.00000E+00 0.00000E+00
 -1       252 0.00000E+00 0.00000E+00
 -1       258 0.00000E+00 0.00000E+00
 -3
    1PSTEP                         5           1           2          
  100CL  115 94079.45572          81                     3   15           1
 -4  SENFREQ     2    1
 -5  DFDN        1    1    1    0
 -5  DFDNFIL     1    1    2    0
 -1         1 0.00000E+00 0.00000E+00
 -1         2 0.00000E+00 0.00000E+00
 -1         3 0.00000E+00 0.00000E+00
 -1         4 0.00000E+00 0.00000E+00
 -1         5-4.93282E+10-1.73145E-01
 -1         6-4.93282E+10-1.73145E-01
 -1         7-4.93282E+10-1.73145E-01
 -1         8-4.93282E+10-1.73145E-01
 -1        10 0.00000E+00 0.00000E+00
 -1        13 0.00000E+00 0.00000E+00
 -1        16 0.00000E+00 0.00000E+00
 -1        19 0.00000E+00 0.00000E+00
 -1        22-6.21373E+10-1.95630E-01
 -1        25-6.40009E+10-2.15546E-01
 -1        28-6.21373E+10-1.95630E-01
 -1        31-6.40009E+10-2.15546E-01
 -1        34 6.25074E+10 1.54391E-01
 -1        36-6.21532E+09 7.37311E-02
 -1        38 9.18146E+09 2.94982E-02
 -1        40 3.39516E+10 9.70076E-02
 -1        42 3.95311E+10 1.21719E-01
 -1        44 2.22093E+10 6.17385E-02
 -1        46-1.55978E+10-9.43362E-02
 -1        49-1.55978E+10-9.43362E-02
 -1        51 2.22093E+10 6.17385E-02
 -1        53 3.95311E+10 1.21719E-01
 -1        55 3.39516E+10 9.70076E-02
 -1        57 9.18146E+09 2.94982E-02
 -1        59-6.21533E+09 7.37311E-02
 -1        61 6.25074E+10 1.54391E-01
 -1        64 6.25074E+10 1.54391E-01
 -1        66-6.21532E+09 7.37311E-02
 -1        68 9.18146E+09 2.94983E-02
 -1        70 3.39516E+10 9.70076E-02
 -1        72 3.95311E+10 1.21719E-01
 -1        74 2.22093E+10 6.17385E-02
 -1        76-1.55978E+10-9.43362E-02
 -1        79 6.25074E+10 1.54391E-01
 -1        81-6.21533E+09 7.37311E-02
 -1        83 9.18146E+09 2.94983E-02
 -1        85 3.39516E+10 9.70076E-02
 -1        87 3.95311E+10 1.21719E-01
 -1        89 2.22093E+10 6.17385E-02
 -1        91-1.55978E+10-9.43362E-02
 -1        95 0.00000E+00 0.00000E+00
 -1       100-1.09413E+11-2.43162E-01
 -1       105 3.23058E+10 1.68177E-01
 -1       109-1.05756E+10 8.39511E-02
 -1       113-2.47285E+10 2.99977E-02
 -1       117-2.00291E+10 1.03949E-01
 -1       121-1.34983E+09 1.33009E-01
 -1       125 9.12482E+09 6.78267E-02
 -1       129-2.09225E+10-1.07815E-01
 -1       134 1.04371E+11 1.91430E-01
 -1       138-1.17569E+10 9.96802E-02
 -1       142 2.56448E+10 4.13625E-02
 -1       146 7.26148E+10 1.28106E-01
 -1       150 7.59364E+10 1.58109E-01
 -1       154 3.78716E+10 7.89842E-02
 -1       158-2.35467E+10-1.21218E-01
 -1       163 3.23058E+10 1.68177E-01
 -1       167-1.05756E+10 8.39511E-02
 -1       171-2.47285E+10 2.99977E-02
 -1       175-2.00291E+10 1.03949E-01
 -1       179-1.34983E+09 1.33009E-01
 -1       183 9.12483E+09 6.78267E-02
 -1       187-2.09225E+10-1.07815E-01
 -1       192 1.04370E+11 1.91430E-01
 -1       196-1.17569E+10 9.96802E-02
 -1       200 2.56448E+10 4.13625E-02
 -1       204 7.26148E+10 1.28106E-01
 -1       208 7.59364E+10 1.58109E-01
 -1       212 3.78716E+10 7.89842E-02
 -1       216-2.35467E+10-1.21218E-01
 -1       222 0.00000E+00 0.00000E+00
 -1       228 0.00000E+00 0.00000E+00
 -1       234 0.00000E+00 0.00000E+00
 -1       240 0.00000E+00 0.00000E+00
 -1       246 0.00000E+00 0.00000E+00
 -1       252 0.00000E+00 0.00000E+00
 -1       258 0.00000E+00 0.00000E+00
 -3
    1PSTEP                         6           1           2          
  100CL  116 119778.3087          81                     3   16           1
 -4  SENFREQ     2    1
 -5  DFDN        1    1    1    0
 -5  DFDNFIL     1    1    2    0
 -1         1 0.00000E+00 0.00000E+00
 -1         2 0.00000E+00 0.00000E+00
 -1         3 0.00000E+00 0.00000E+00
 -1         4 0.00000E+00 0.00000E+00
 -1         5-7.75593E+10-1.73076E-01
 -1         6-7.75593E+10-1.73076E-01
 -1         7-7.75593E+10-1.73076E-01
 -1         8-7.75593E+10-1.73076E-01
 -1        10 0.00000E+00 0.00000E+00
 -1        13 0.00000E+00 0.00000E+00
 -1        16 0.00000E+00 0.00000E+00
 -1        19 0.00000E+00 0.00000E+00
 -1        22-1.05492E+11-1.96234E-01
 -1        25-8.93448E+10-2.14103E-01
 -1        28-1.05492E+11-1.96234E-01
 -1        31-8.93448E+10-2.14103E-01
 -1        34 9.49259E+10 1.66303E-01
 -1        36-6.09363E+09 8.14371E-02
 -1        38 1.05947E+10 2.96159E-02
 -1        40 4.30922E+10 9.00515E-02
 -1        42 5.24877E+10 1.11768E-01
 -1        44 2.91565E+10 5.16314E-02
 -1        46-2.79133E+10-1.00168E-01
 -1        49-2.79133E+10-1.00168E-01
 -1        51 2.91565E+10 5.16314E-02
 -1        53 5.24877E+10 1.11768E-01
 -1        55 4.30922E+10 9.00515E-02
 -1        57 1.05947E+10 2.96159E-02
 -1        59-6.09363E+09 8.14371E-02
 -1        61 9.49259E+10 1.66303E-01
 -1        64 9.49259E+10 1.66303E-01
 -1        66-6.09364E+09 8.14371E-02
 -1        68 1.05947E+10 2.96159E-02
 -1        70 4.30922E+10 9.00515E-02
 -1        72 5.24877E+10 1.11768E-01
 -1        74 2.91565E+10 5.16314E-02
 -1        76-2.79133E+10-1.00168E-01
 -1        79 9.49259E+10 1.66303E-01
 -1        81-6.09363E+09 8.14371E-02
 -1        83 1.05947E+10 2.96159E-02
 -1        85 4.30922E+10 9.00515E-02
 -1        87 5.24877E+10 1.11768E-01
 -1        89 2.91565E+10 5.16314E-02
 -1        91-2.79133E+10-1.00168E-01
 -1        95 0.00000E+00 0.00000E+00
 -1       100-1.62954E+11-2.41941E-01
 -1       105 1.77650E+11 1.91614E-01
 -1       109-1.18077E+10 9.45016E-02
 -1       113 4.99233E+10 3.66047E-02
 -1       117 1.24105E+11 1.07225E-01
 -1       121 1.24954E+11 1.31094E-01
 -1       125 5.70185E+10 6.00521E-02
 -1       129-4.55486E+10-1.14616E-01
 -1       134 6.27324E+10 1.92507E-01
 -1       138-1.36296E+10 1.06261E-01
 -1       142-4.27529E+10 3.16179E-02
 -1       146-3.91555E+10 1.02471E-01
 -1       150-8.56340E+09 1.31273E-01
 -1       154 1.09292E+10 6.04937E-02
 -1       158-3.30595E+10-1.28007E-01
 -1       163 1.77650E+11 1.91614E-01
 -1       167-1.18077E+10 9.45016E-02
 -1       171 4.99233E+10 3.66047E-02
 -1       175 1.24105E+11 1.07225E-01
 -1       179 1.24954E+11 1.31094E-01
 -1       183 5.70185E+10 6.00521E-02
 -1       187-4.55486E+10-1.14616E-01
 -1       192 6.27324E+10 1.92507E-01
 -1       196-1.36296E+10 1.06261E-01
 -1       200-4.27529E+10 3.16179E-02
 -1       204-3.91555E+10 1.02471E-01
 -1       208-8.56340E+09 1.31273E-01
 -1       212 1.09292E+10 6.04937E-02
 -1       216-3.30595E+10-1.28007E-01
 -1       222 0.00000E+00 0.00000E+00
 -1       228 0.00000E+00 0.00000E+00
 -1       234 0.00000E+00 0.00000E+00
 -1       240 0.00000E+00 0.00000E+00
 -1       246 0.00000E+00 0.00000E+00
 -1       252 0.00000E+00 0.00000E+00
 -1       258 0.00000E+00 0.00000E+00
 -3
    1PSTEP                         7           1           2          
  100CL  117 164426.6391          81                     3   17           1
 -4  SENFREQ     2    1
 -5  DFDN        1    1    1    0
 -5  DFDNFIL     1    1    2    0
 -1         1 0.00000E+00 0.00000E+00
 -1         2 0.00000E+00 0.00000E+00
 -1         3 0.00000E+00 0.00000E+00
 -1         4 0.00000E+00 0.00000E+00