    1C
    1UUSER                                                              
    1UDATE              16.march.2026                                   
    1UTIME              20:48:35                                        
    1UHOST                                                              
    1UPGM               CalculiX                                        
    1UVERSION           Version DEVELOPMENT                             
    1UCOMPILETIME       Mon Mar  2 17:58:21 CET 2026                    
    1UDIR                                                               
    1UDBN                                                               
    1UMAT    1M1                                                        
    2C                           261                                     1
 -1         1 0.00000E+00 5.00000E+00-5.00000E+00
 -1         2 0.00000E+00 5.00000E+00 5.00000E+00
 -1         3 1.00000E+02 5.00000E+00 5.00000E+00
 -1         4 1.00000E+02 5.00000E+00-5.00000E+00
 -1         5 0.00000E+00-5.00000E+00 5.00000E+00
 -1         6 1.00000E+02-5.00000E+00 5.00000E+00
 -1         7 0.00000E+00-5.00000E+00-5.00000E+00
 -1         8 1.00000E+02-5.00000E+00-5.00000E+00
 -1         9 0.00000E+00 5.00000E+00 1.40000E-01
 -1        10 9.33000E+01 5.00000E+00 5.00000E+00
 -1        11 8.43000E+01 5.00000E+00 5.00000E+00
 -1        12 7.42000E+01 5.00000E+00 5.00000E+00
 -1        13 6.41000E+01 5.00000E+00 5.00000E+00
 -1        14 5.39000E+01 5.00000E+00 5.00000E+00
 -1        15 4.38000E+01 5.00000E+00 5.00000E+00
 -1        16 3.36000E+01 5.00000E+00 5.00000E+00
 -1        17 2.35000E+01 5.00000E+00 5.00000E+00
 -1        18 1.36000E+01 5.00000E+00 5.00000E+00
 -1        19 5.60000E+00 5.00000E+00 5.00000E+00
 -1        20 1.00000E+02 5.00000E+00 1.40000E-01
 -1        21 9.28000E+01 5.00000E+00-5.00000E+00
 -1        22 8.31000E+01 5.00000E+00-5.00000E+00
 -1        23 7.33000E+01 5.00000E+00-5.00000E+00
 -1        24 6.35000E+01 5.00000E+00-5.00000E+00
 -1        25 5.37000E+01 5.00000E+00-5.00000E+00
 -1        26 4.40000E+01 5.00000E+00-5.00000E+00
 -1        27 3.42000E+01 5.00000E+00-5.00000E+00
 -1        28 2.44000E+01 5.00000E+00-5.00000E+00
 -1        29 1.46000E+01 5.00000E+00-5.00000E+00
 -1        30 4.90000E+00 5.00000E+00-5.00000E+00
 -1        31 0.00000E+00 0.00000E+00 5.00000E+00
 -1        32 9.34000E+01-5.00000E+00 5.00000E+00
 -1        33 8.39000E+01-5.00000E+00 5.00000E+00
 -1        34 7.39000E+01-5.00000E+00 5.00000E+00
 -1        35 6.39000E+01-5.00000E+00 5.00000E+00
 -1        36 5.39000E+01-5.00000E+00 5.00000E+00
 -1        37 4.38000E+01-5.00000E+00 5.00000E+00
 -1        38 3.38000E+01-5.00000E+00 5.00000E+00
 -1        39 2.38000E+01-5.00000E+00 5.00000E+00
 -1        40 1.38000E+01-5.00000E+00 5.00000E+00
 -1        41 5.50000E+00-5.00000E+00 5.00000E+00
 -1        42 1.00000E+02 0.00000E+00 5.00000E+00
 -1        43 0.00000E+00-5.00000E+00 5.30000E-15
 -1        44 9.34000E+01-5.00000E+00-5.00000E+00
 -1        45 8.39000E+01-5.00000E+00-5.00000E+00
 -1        46 7.39000E+01-5.00000E+00-5.00000E+00
 -1        47 6.39000E+01-5.00000E+00-5.00000E+00
 -1        48 5.39000E+01-5.00000E+00-5.00000E+00
 -1        49 4.38000E+01-5.00000E+00-5.00000E+00
 -1        50 3.38000E+01-5.00000E+00-5.00000E+00
 -1        51 2.38000E+01-5.00000E+00-5.00000E+00
 -1        52 1.38000E+01-5.00000E+00-5.00000E+00
 -1        53 5.50000E+00-5.00000E+00-5.00000E+00
 -1        54 1.00000E+02-5.00000E+00 5.30000E-15
 -1        55 0.00000E+00 2.50000E-01-5.00000E+00
 -1        56 1.00000E+02 2.50000E-01-5.00000E+00
 -1        57 1.00000E+02-9.77456E-01-5.50749E-03
 -1        58 0.00000E+00-9.77456E-01-5.50749E-03
 -1        59 8.51872E+00-3.40514E-03-1.46121E-02
 -1        60 0.00000E+00 5.00000E+00-2.43000E+00
 -1        61 2.45000E+00 5.00000E+00-2.43000E+00
 -1        62 2.45000E+00 5.00000E+00-5.00000E+00
 -1        63 0.00000E+00 5.00000E+00 2.57000E+00
 -1        64 2.80000E+00 5.00000E+00 5.00000E+00
 -1        65 2.80000E+00 5.00000E+00 2.57000E+00
 -1        66 8.88000E+01 5.00000E+00 5.00000E+00
 -1        67 9.30500E+01 5.00000E+00 4.88498E-15
 -1        68 8.85500E+01 5.00000E+00 4.88498E-15
 -1        69 7.92500E+01 5.00000E+00 5.00000E+00
 -1        70 8.37000E+01 5.00000E+00 4.88498E-15
 -1        71 7.86500E+01 5.00000E+00 4.88498E-15
 -1        72 6.91500E+01 5.00000E+00 5.00000E+00
 -1        73 7.37500E+01 5.00000E+00 4.88498E-15
 -1        74 6.87000E+01 5.00000E+00 4.88498E-15
 -1        75 5.90000E+01 5.00000E+00 5.00000E+00
 -1        76 6.38000E+01 5.00000E+00 4.88498E-15
 -1        77 5.87000E+01 5.00000E+00 4.88498E-15
 -1        78 4.88500E+01 5.00000E+00 5.00000E+00
 -1        79 5.38000E+01 5.00000E+00 4.88498E-15
 -1        80 4.87500E+01 5.00000E+00 4.88498E-15
 -1        81 3.87000E+01 5.00000E+00 5.00000E+00
 -1        82 3.90000E+01 5.00000E+00 4.88498E-15
 -1        83 3.39000E+01 5.00000E+00 4.88498E-15
 -1        84 2.85500E+01 5.00000E+00 5.00000E+00
 -1        85 2.90000E+01 5.00000E+00 4.88498E-15
 -1        86 2.39500E+01 5.00000E+00 4.88498E-15
 -1        87 1.85500E+01 5.00000E+00 5.00000E+00
 -1        88 1.90500E+01 5.00000E+00 4.88498E-15
 -1        89 1.41000E+01 5.00000E+00 4.88498E-15
 -1        90 9.75000E+00 5.00000E+00-5.00000E+00
 -1        91 9.25000E+00 5.00000E+00 4.88498E-15
 -1        92 8.79500E+01 5.00000E+00-5.00000E+00
 -1        93 7.82000E+01 5.00000E+00-5.00000E+00
 -1        94 6.84000E+01 5.00000E+00-5.00000E+00
 -1        95 5.86000E+01 5.00000E+00-5.00000E+00
 -1        96 2.93000E+01 5.00000E+00-5.00000E+00
 -1        97 1.95000E+01 5.00000E+00-5.00000E+00
 -1        98 9.66500E+01 5.00000E+00 5.00000E+00
 -1        99 1.00000E+02 5.00000E+00 2.57000E+00
 -1       100 9.66500E+01 5.00000E+00 2.57000E+00
 -1       101 4.88500E+01 5.00000E+00-5.00000E+00
 -1       102 4.39000E+01 5.00000E+00 4.88498E-15
 -1       103 3.91000E+01 5.00000E+00-5.00000E+00
 -1       104 9.60000E+00 5.00000E+00 5.00000E+00
 -1       105 5.25000E+00 5.00000E+00 4.88498E-15
 -1       106 9.64000E+01 5.00000E+00-2.43000E+00
 -1       107 1.00000E+02 5.00000E+00-2.43000E+00
 -1       108 9.64000E+01 5.00000E+00-5.00000E+00
 -1       109 0.00000E+00 2.50000E+00 5.00000E+00
 -1       110 2.80000E+00 2.50000E+00 5.00000E+00
 -1       111 0.00000E+00-2.50000E+00 5.00000E+00
 -1       112 2.75000E+00-5.00000E+00 5.00000E+00
 -1       113 2.75000E+00-2.50000E+00 5.00000E+00
 -1       114 8.86500E+01-5.00000E+00 5.00000E+00
 -1       115 8.88500E+01 0.00000E+00 5.00000E+00
 -1       116 8.41000E+01 0.00000E+00 5.00000E+00
 -1       117 7.89000E+01-5.00000E+00 5.00000E+00
 -1       118 7.90500E+01 0.00000E+00 5.00000E+00
 -1       119 7.40500E+01 0.00000E+00 5.00000E+00
 -1       120 6.89000E+01-5.00000E+00 5.00000E+00
 -1       121 6.90000E+01 0.00000E+00 5.00000E+00
 -1       122 6.40000E+01 0.00000E+00 5.00000E+00
 -1       123 5.89000E+01-5.00000E+00 5.00000E+00
 -1       124 5.89000E+01 0.00000E+00 5.00000E+00
 -1       125 5.39000E+01 0.00000E+00 5.00000E+00
 -1       126 4.88500E+01-5.00000E+00 5.00000E+00
 -1       127 4.88500E+01 0.00000E+00 5.00000E+00
 -1       128 3.88000E+01-5.00000E+00 5.00000E+00
 -1       129 4.38000E+01 0.00000E+00 5.00000E+00
 -1       130 3.88000E+01 0.00000E+00 5.00000E+00
 -1       131 2.88000E+01-5.00000E+00 5.00000E+00
 -1       132 3.37000E+01 0.00000E+00 5.00000E+00
 -1       133 2.87000E+01 0.00000E+00 5.00000E+00
 -1       134 1.88000E+01-5.00000E+00 5.00000E+00
 -1       135 2.36500E+01 0.00000E+00 5.00000E+00
 -1       136 1.86500E+01 0.00000E+00 5.00000E+00
 -1       137 9.65000E+00-5.00000E+00 5.00000E+00
 -1       138 1.37000E+01 0.00000E+00 5.00000E+00
 -1       139 9.55000E+00 0.00000E+00 5.00000E+00
 -1       140 9.33500E+01 0.00000E+00 5.00000E+00
 -1       141 9.67000E+01-2.50000E+00 5.00000E+00
 -1       142 9.66500E+01 2.50000E+00 5.00000E+00
 -1       143 9.67000E+01-5.00000E+00 5.00000E+00
 -1       144 1.00000E+02-2.50000E+00 5.00000E+00
 -1       145 1.00000E+02 2.50000E+00 5.00000E+00
 -1       146 5.55000E+00 0.00000E+00 5.00000E+00
 -1       147 0.00000E+00-5.00000E+00 2.50000E+00
 -1       148 2.75000E+00-5.00000E+00 2.50000E+00
 -1       149 0.00000E+00-5.00000E+00-2.50000E+00
 -1       150 2.75000E+00-5.00000E+00-5.00000E+00
 -1       151 2.75000E+00-5.00000E+00-2.50000E+00
 -1       152 8.86500E+01-5.00000E+00-5.00000E+00
 -1       153 9.34000E+01-5.00000E+00 4.88498E-15
 -1       154 8.86500E+01-5.00000E+00 4.88498E-15
 -1       155 7.89000E+01-5.00000E+00-5.00000E+00
 -1       156 8.39000E+01-5.00000E+00 4.88498E-15
 -1       157 7.89000E+01-5.00000E+00 4.88498E-15
 -1       158 6.89000E+01-5.00000E+00-5.00000E+00
 -1       159 7.39000E+01-5.00000E+00 4.88498E-15
 -1       160 6.89000E+01-5.00000E+00 4.88498E-15
 -1       161 5.89000E+01-5.00000E+00-5.00000E+00
 -1       162 6.39000E+01-5.00000E+00 4.88498E-15
 -1       163 5.89000E+01-5.00000E+00 4.88498E-15
 -1       164 4.88500E+01-5.00000E+00-5.00000E+00
 -1       165 5.39000E+01-5.00000E+00 4.88498E-15
 -1       166 4.88500E+01-5.00000E+00 4.88498E-15
 -1       167 3.88000E+01-5.00000E+00-5.00000E+00
 -1       168 4.38000E+01-5.00000E+00 4.88498E-15
 -1       169 3.88000E+01-5.00000E+00 4.88498E-15
 -1       170 2.88000E+01-5.00000E+00-5.00000E+00
 -1       171 3.38000E+01-5.00000E+00 4.88498E-15
 -1       172 2.88000E+01-5.00000E+00 4.88498E-15
 -1       173 1.88000E+01-5.00000E+00-5.00000E+00
 -1       174 2.38000E+01-5.00000E+00 4.88498E-15
 -1       175 1.88000E+01-5.00000E+00 4.88498E-15
 -1       176 9.65000E+00-5.00000E+00-5.00000E+00
 -1       177 1.38000E+01-5.00000E+00 4.88498E-15
 -1       178 9.65000E+00-5.00000E+00 4.88498E-15
 -1       179 9.67000E+01-5.00000E+00-2.50000E+00
 -1       180 9.67000E+01-5.00000E+00 2.50000E+00
 -1       181 9.67000E+01-5.00000E+00-5.00000E+00
 -1       182 1.00000E+02-5.00000E+00-2.50000E+00
 -1       183 1.00000E+02-5.00000E+00 2.50000E+00
 -1       184 5.50000E+00-5.00000E+00 4.88498E-15
 -1       185 0.00000E+00-2.37500E+00-5.00000E+00
 -1       186 2.75000E+00-2.37500E+00-5.00000E+00
 -1       187 0.00000E+00 2.62500E+00-5.00000E+00
 -1       188 2.45000E+00 2.62500E+00-5.00000E+00
 -1       189 8.83500E+01 0.00000E+00-5.00000E+00
 -1       190 8.35000E+01 0.00000E+00-5.00000E+00
 -1       191 7.85000E+01 0.00000E+00-5.00000E+00
 -1       192 7.36000E+01 0.00000E+00-5.00000E+00
 -1       193 6.86000E+01 0.00000E+00-5.00000E+00
 -1       194 6.37000E+01 0.00000E+00-5.00000E+00
 -1       195 5.87000E+01 0.00000E+00-5.00000E+00
 -1       196 5.38000E+01 0.00000E+00-5.00000E+00
 -1       197 4.87500E+01 0.00000E+00-5.00000E+00
 -1       198 4.39000E+01 0.00000E+00-5.00000E+00
 -1       199 3.90000E+01 0.00000E+00-5.00000E+00
 -1       200 3.40000E+01 0.00000E+00-5.00000E+00
 -1       201 2.91000E+01 0.00000E+00-5.00000E+00
 -1       202 2.41000E+01 0.00000E+00-5.00000E+00
 -1       203 1.92000E+01 0.00000E+00-5.00000E+00
 -1       204 1.42000E+01 0.00000E+00-5.00000E+00
 -1       205 9.35000E+00 0.00000E+00-5.00000E+00
 -1       206 9.31000E+01 0.00000E+00-5.00000E+00
 -1       207 9.64000E+01 2.62500E+00-5.00000E+00
 -1       208 9.67000E+01-2.37500E+00-5.00000E+00
 -1       209 1.00000E+02 2.62500E+00-5.00000E+00
 -1       210 1.00000E+02-2.37500E+00-5.00000E+00
 -1       211 5.20000E+00 0.00000E+00-5.00000E+00
 -1       212 1.00000E+02-3.63728E-01-2.50275E+00
 -1       213 1.00000E+02 2.62500E+00-2.43000E+00
 -1       214 1.00000E+02 2.01127E+00 6.72463E-02
 -1       215 1.00000E+02 2.50000E+00 2.57000E+00
 -1       216 1.00000E+02-2.98873E+00-2.75375E-03
 -1       217 1.00000E+02-2.98873E+00 2.49725E+00
 -1       218 1.00000E+02-2.98873E+00-2.50275E+00
 -1       219 1.00000E+02-4.88728E-01 2.49725E+00
 -1       220 0.00000E+00 2.01127E+00 6.72463E-02
 -1       221 0.00000E+00 2.62500E+00-2.43000E+00
 -1       222 0.00000E+00-3.63728E-01-2.50275E+00
 -1       223 0.00000E+00 2.50000E+00 2.57000E+00
 -1       224 0.00000E+00-2.98873E+00-2.75375E-03
 -1       225 0.00000E+00-2.98873E+00-2.50275E+00
 -1       226 0.00000E+00-4.88728E-01 2.49725E+00
 -1       227 0.00000E+00-2.98873E+00 2.49725E+00
 -1       228 4.39000E+01 0.00000E+00 4.88498E-15
 -1       229 4.87500E+01 0.00000E+00 4.88498E-15
 -1       230 9.67000E+01-2.98873E+00 2.49725E+00
 -1       231 2.41000E+01 0.00000E+00 4.88498E-15
 -1       232 1.92000E+01 0.00000E+00 4.88498E-15
 -1       233 2.75000E+00-2.98873E+00-2.50275E+00
 -1       234 2.75000E+00-2.98873E+00 2.49725E+00
 -1       235 2.91000E+01 0.00000E+00 4.88498E-15
 -1       236 3.40000E+01 0.00000E+00 4.88498E-15
 -1       237 7.00936E+00-2.50170E+00 2.49269E+00
 -1       238 1.11594E+01-2.50170E+00 2.49269E+00
 -1       239 1.10594E+01 2.49830E+00 2.49269E+00
 -1       240 7.00936E+00-2.50170E+00-2.50731E+00
 -1       241 7.05936E+00 2.49830E+00 2.49269E+00
 -1       242 8.83500E+01 0.00000E+00 4.88498E-15
 -1       243 8.35000E+01 0.00000E+00 4.88498E-15
 -1       244 6.37000E+01 0.00000E+00 4.88498E-15
 -1       245 5.87000E+01 0.00000E+00 4.88498E-15
 -1       246 9.66500E+01 2.01127E+00 2.49725E+00
 -1       247 9.64000E+01 2.01127E+00-2.50275E+00
 -1       248 9.67000E+01-2.98873E+00-2.50275E+00
 -1       249 7.85000E+01 0.00000E+00 4.88498E-15
 -1       250 2.45000E+00 2.01127E+00-2.50275E+00
 -1       251 2.80000E+00 2.01127E+00 2.49725E+00
 -1       252 9.31000E+01 0.00000E+00 4.88498E-15
 -1       253 3.90000E+01 0.00000E+00 4.88498E-15
 -1       254 6.70936E+00 2.49830E+00-2.50731E+00
 -1       255 4.25936E+00-4.90430E-01-1.00598E-02
 -1       256 7.36000E+01 0.00000E+00 4.88498E-15
 -1       257 1.42000E+01 0.00000E+00 4.88498E-15
 -1       258 5.38000E+01 0.00000E+00 4.88498E-15
 -1       259 1.15594E+01 2.49830E+00-2.50731E+00
 -1       260 6.86000E+01 0.00000E+00 4.88498E-15
 -1       261 1.11594E+01-2.50170E+00-2.50731E+00
 -3
    3C                            88                                     1
 -1         1    6    0    1
 -2        56         4        21        20       209       108       207       213       107       106
 -1         2    6    0    1
 -2        10        42        20         3       142       215       100        98       145        99
 -1         3    6    0    1
 -2        25        26        37        15       101       228       229        80       102       129
 -1         4    6    0    1
 -2        42         6        32        57       144       143       141       219       217       230
 -1         5    6    0    1
 -2        29        28        39        51        97       231       232       203       202       174
 -1         6    6    0    1
 -2        53         7        43        58       150       149       151       233       225       224
 -1         7    6    0    1
 -2        43        41        53        58       148       184       151       224       234       233
 -1         8    6    0    1
 -2        28        38        50        27       235       171       201        96       236       200
 -1         9    6    0    1
 -2        27        15        16        38        82        81        83       236       130       132
 -1        10    6    0    1
 -2        59        41        40        18       237       137       238       239       139       138
 -1        11    6    0    1
 -2        28        16        39        38        85       133       231       235       132       131
 -1        12    6    0    1
 -2        28        29        39        17        97       232       231        86        88       135
 -1        13    6    0    1
 -2        59        40        41        53       238       137       237       240       178       184
 -1        14    6    0    1
 -2        59        19        41        18       241       146       237       239       104       139
 -1        15    6    0    1
 -2        21        33        22        45       242       243        92       189       156       190
 -1        16    6    0    1
 -2        14        35        36        24       124       123       125        77       244       245
 -1        17    6    0    1
 -2        10        57        21        20       246       247        67       100       214       106
 -1        18    6    0    1
 -2        45        33        22        46       156       243       190       155       157       191
 -1        19    6    0    1
 -2         9         2        31        19        63       109       223        65        64       110
 -1        20    6    0    1
 -2        32        54        44        57       180       179       153       230       216       248
 -1        21    6    0    1
 -2        12        33        34        22       118       117       119        71       243       249
 -1        22    6    0    1
 -2        43         5        41        58       147       112       148       224       227       234
 -1        23    6    0    1
 -2        10        42        32        57       142       141       140       246       219       230
 -1        24    6    0    1
 -2         9        30        55         1        61       188       221        60        62       187
 -1        25    6    0    1
 -2        55        30         9        58       188        61       221       222       250       220
 -1        26    6    0    1
 -2        22        33        34        46       243       117       249       191       157       159
 -1        27    6    0    1
 -2         9        19        31        58        65       110       223       220       251       226
 -1        28    6    0    1
 -2        53        30        55        58       211       188       186       233       250       222
 -1        29    6    0    1
 -2        44        21        45        32       206       189       152       153       252       154
 -1        30    6    0    1
 -2        26        37        27        49       228       253       103       198       168       199
 -1        31    6    0    1
 -2        58        30        59        53       250       254       255       233       211       240
 -1        32    6    0    1
 -2        23        22        34        46        93       249       256       192       191       159
 -1        33    6    0    1
 -2        58        53        59        41       233       240       255       234       184       237
 -1        34    6    0    1
 -2        18        40        29        17       138       257        89        87       136        88
 -1        35    6    0    1
 -2         9        30        19        58        61       105        65       220       250       251
 -1        36    6    0    1
 -2        28        39        51        38       231       174       202       235       131       172
 -1        37    6    0    1
 -2        41         5        31        58       112       111       113       234       227       226
 -1        38    6    0    1
 -2        33        21        22        11       242        92       243       116        68        70
 -1        39    6    0    1
 -2        55         7        53        58       185       150       186       222       225       233
 -1        40    6    0    1
 -2        47        24        48        35       194       195       161       162       244       163
 -1        41    6    0    1
 -2        34        46        47        23       159       158       160       256       192       193
 -1        42    6    0    1
 -2        11        33        12        22       116       118        69        70       243        71
 -1        43    6    0    1
 -2        48        24        36        35       195       245       165       163       244       123
 -1        44    6    0    1
 -2        10        32        21        57       140       252        67       246       230       247
 -1        45    6    0    1
 -2        54         8        44        57       182       181       179       216       218       248
 -1        46    6    0    1
 -2        11        32        33        21       115       114       116        68       252       242
 -1        47    6    0    1
 -2        24        36        25        48       245       258        95       195       165       196
 -1        48    6    0    1
 -2        59        29        30        18       259        90       254       239        89        91
 -1        49    6    0    1
 -2        34        23        47        35       256       193       160       120       260       162
 -1        50    6    0    1
 -2        37        15        14        25       129        78       127       229        80        79
 -1        51    6    0    1
 -2        32         6        54        57       143       183       180       230       217       216
 -1        52    6    0    1
 -2        45        21        33        32       189       242       156       154       252       114
 -1        53    6    0    1
 -2        21        32        44        57       252       153       206       247       230       248
 -1        54    6    0    1
 -2        35        23        24        13       260        94       244       122        74        76
 -1        55    6    0    1
 -2        58        41        59        19       234       237       255       251       146       241
 -1        56    6    0    1
 -2        48        25        49        36       196       197       164       165       258       166
 -1        57    6    0    1
 -2        44         8        56        57       181       210       208       248       218       212
 -1        58    6    0    1
 -2        52        51        29        39       173       203       204       175       174       232
 -1        59    6    0    1
 -2        20        42        10        57       215       142       100       214       219       246
 -1        60    6    0    1
 -2        10        32        11        21       140       115        66        67       252        68
 -1        61    6    0    1
 -2        17        39        28        16       135       231        86        84       133        85
 -1        62    6    0    1
 -2        29        40        52        39       257       177       204       232       134       175
 -1        63    6    0    1
 -2        40        39        29        17       134       232       257       136       135        88
 -1        64    6    0    1
 -2        16        38        28        27       132       235        85        83       236        96
 -1        65    6    0    1
 -2        44        57        56        21       248       212       208       206       247       207
 -1        66    6    0    1
 -2        13        35        14        24       122       124        75        76       244        77
 -1        67    6    0    1
 -2        23        35        24        47       260       244        94       193       162       194
 -1        68    6    0    1
 -2        28        51        50        38       202       170       201       235       172       171
 -1        69    6    0    1
 -2        27        37        50        49       253       169       200       199       168       167
 -1        70    6    0    1
 -2        27        15        38        37        82       130       236       253       129       128
 -1        71    6    0    1
 -2        50        37        27        38       169       253       200       171       128       236
 -1        72    6    0    1
 -2        59        30        19        18       254       105       241       239        91       104
 -1        73    6    0    1
 -2        36        24        25        14       245        95       258       125        77        79
 -1        74    6    0    1
 -2        23        34        12        13       256       119        73        74       121        72
 -1        75    6    0    1
 -2        59        29        18        40       259        89       239       238       257       138
 -1        76    6    0    1
 -2        21        57        56        20       247       212       207       106       214       213
 -1        77    6    0    1
 -2        37        26        27        15       228       103       253       129       102        82
 -1        78    6    0    1
 -2        22        23        34        12        93       256       249        71        73       119
 -1        79    6    0    1
 -2        23        35        34        13       260       120       256        74       122       121
 -1        80    6    0    1
 -2        37        25        14        36       229        79       127       126       258       125
 -1        81    6    0    1
 -2        25        36        37        49       258       126       229       197       166       168
 -1        82    6    0    1
 -2        25        49        37        26       197       168       229       101       198       228
 -1        83    6    0    1
 -2        31        58        19        41       226       251       110       113       234       146
 -1        84    6    0    1
 -2        53        40        52        59       178       177       176       240       238       261
 -1        85    6    0    1
 -2        52        29        30        59       204        90       205       261       259       254
 -1        86    6    0    1
 -2        53        52        30        59       176       205       211       240       261       254
 -1        87    6    0    1
 -2        52        29        59        40       204       259       261       177       257       238
 -1        88    6    0    1
 -2        58        19        59        30       251       241       255       250       105       254
 -3
    1PSTEP                         1           1           1          
  100CL  101 1.000000000         261                     0    1           1
 -4  DISP        4    1
 -5  D1          1    2    1    0
 -5  D2          1    2    2    0
 -5  D3          1    2    3    0
 -5  ALL         1    2    0    0    1ALL
 -1         1 0.00000E+00 0.00000E+00 0.00000E+00
 -1         2 0.00000E+00 0.00000E+00 0.00000E+00
 -1         3 1.22520E-01 8.44410E-02-1.81029E-02
 -1         4 1.19477E-01 8.48013E-02-8.27592E-03
 -1         5 0.00000E+00 0.00000E+00 0.00000E+00
 -1         6 1.37925E-01 9.43210E-02-1.77949E-02
 -1         7 0.00000E+00 0.00000E+00 0.00000E+00
 -1         8 1.35186E-01 9.43617E-02-8.63836E-03
 -1         9 0.00000E+00 0.00000E+00 0.00000E+00
 -1        10 1.03823E-01 7.63542E-02-1.28264E-02
 -1        11 9.34462E-02 6.18725E-02-1.08421E-02
 -1        12 8.22319E-02 4.74961E-02-8.73895E-03
 -1        13 7.09853E-02 3.49574E-02-6.89066E-03
 -1        14 5.96269E-02 2.41647E-02-5.30008E-03
 -1        15 4.83799E-02 1.53289E-02-3.99899E-03
 -1        16 3.70216E-02 8.27507E-03-2.96194E-03
 -1        17 2.57759E-02 3.14066E-03-2.21080E-03
 -1        18 1.47724E-02-1.03319E-04-1.74430E-03
 -1        19 6.14547E-03-1.39068E-03-1.55637E-03
 -1        20 1.11547E-01 8.69289E-02-1.31705E-02
 -1        21 1.00598E-01 7.55835E-02-9.91685E-03
 -1        22 8.99589E-02 6.01346E-02-7.51477E-03
 -1        23 7.92905E-02 4.63678E-02-5.48442E-03
 -1        24 6.86375E-02 3.43351E-02-3.70918E-03
 -1        25 5.79864E-02 2.40365E-02-2.19115E-03
 -1        26 4.74441E-02 1.55507E-02-9.41553E-04
 -1        27 3.67932E-02 8.70260E-03 6.54138E-05
 -1        28 2.61422E-02 3.58865E-03 8.15516E-04
 -1        29 1.54942E-02 1.99875E-04 1.31174E-03
 -1        30 5.25008E-03-1.40180E-03 1.48441E-03
 -1        31 0.00000E+00 0.00000E+00 0.00000E+00
 -1        32 1.20616E-01 7.95626E-02-1.31501E-02
 -1        33 1.08152E-01 6.46233E-02-1.10429E-02
 -1        34 9.51736E-02 5.04641E-02-8.95923E-03
 -1        35 8.22289E-02 3.80981E-02-7.13680E-03
 -1        36 6.92872E-02 2.75355E-02-5.58004E-03
 -1        37 5.62164E-02 1.86997E-02-4.27898E-03
 -1        38 4.32752E-02 1.17660E-02-3.25957E-03
 -1        39 3.03339E-02 6.63817E-03-2.50825E-03
 -1        40 1.73980E-02 3.32269E-03-2.03689E-03
 -1        41 6.93859E-03 1.93468E-03-1.76019E-03
 -1        42 1.21848E-01 8.94738E-02-1.56790E-02
 -1        43 0.00000E+00 0.00000E+00 0.00000E+00
 -1        44 1.18212E-01 7.95882E-02-9.78098E-03
 -1        45 1.05858E-01 6.46055E-02-7.45864E-03
 -1        46 9.32117E-02 5.04548E-02-5.37606E-03
 -1        47 8.05377E-02 3.80878E-02-3.55098E-03
 -1        48 6.78638E-02 2.75252E-02-1.99398E-03
 -1        49 5.50632E-02 1.86895E-02-6.92854E-04
 -1        50 4.23893E-02 1.17558E-02 3.26674E-04
 -1        51 2.97164E-02 6.62841E-03 1.07880E-03
 -1        52 1.70552E-02 3.31859E-03 1.55967E-03
 -1        53 6.81336E-03 1.87053E-03 1.73345E-03
 -1        54 1.30607E-01 9.23005E-02-1.31729E-02
 -1        55 0.00000E+00 0.00000E+00 0.00000E+00
 -1        56 1.18725E-01 8.94580E-02-1.06391E-02
 -1        57 1.18508E-01 8.99540E-02-1.31601E-02
 -1        58 0.00000E+00 0.00000E+00 0.00000E+00
 -1        59 9.63058E-03 6.13591E-04-6.28975E-05
 -1        60 0.00000E+00 0.00000E+00 0.00000E+00
 -1        61 2.39974E-03-1.15273E-03 4.66490E-04
 -1        62 2.67529E-03-1.22472E-03 1.19805E-03
 -1        63 0.00000E+00 0.00000E+00 0.00000E+00
 -1        64 3.09743E-03-1.28816E-03-1.28866E-03
 -1        65 2.78955E-03-1.21918E-03-5.42473E-04
 -1        66 9.85794E-02 6.88814E-02-1.18669E-02
 -1        67 1.01975E-01 7.60815E-02-1.13245E-02
 -1        68 9.70677E-02 6.86066E-02-1.02881E-02
 -1        69 8.78462E-02 5.44523E-02-9.76543E-03
 -1        70 9.17063E-02 6.10624E-02-9.17505E-03
 -1        71 8.61476E-02 5.36983E-02-8.09233E-03
 -1        72 7.66089E-02 4.09960E-02-7.78120E-03
 -1        73 8.07546E-02 4.69929E-02-7.10226E-03
 -1        74 7.51987E-02 4.05346E-02-6.14978E-03
 -1        75 6.53061E-02 2.93262E-02-6.06071E-03
 -1        76 6.98073E-02 3.47086E-02-5.29050E-03
 -1        77 6.41963E-02 2.91051E-02-4.46445E-03
 -1        78 5.40034E-02 1.95166E-02-4.61544E-03
 -1        79 5.88053E-02 2.41637E-02-3.73625E-03
 -1        80 5.32493E-02 1.95247E-02-3.05295E-03