
                        S T E P       1


                                INCREMENT     1


 displacements (vx,vy,vz) for set NALL and time  0.1000000E+01

         1 -2.015756E-06  1.685378E-05  5.696329E-04
         2  2.015756E-06  1.685378E-05  5.696329E-04
         3 -1.885499E-06  1.676880E-05 -5.672721E-04
         4  1.885499E-06  1.676880E-05 -5.672721E-04
         5 -2.015756E-06  1.685378E-05 -5.696329E-04
         6  2.015756E-06  1.685378E-05 -5.696329E-04
         7 -1.885499E-06  1.676880E-05  5.672721E-04
         8  1.885499E-06  1.676880E-05  5.672721E-04
         9 -1.089146E-06  1.636709E-05  5.697314E-04
        10  7.769674E-19  1.546610E-05  5.697918E-04
        11  1.089146E-06  1.636709E-05  5.697314E-04
        12  2.089837E-06  9.297922E-06  2.854798E-04
        13  0.000000E+00  0.000000E+00  0.000000E+00
        14 -2.136659E-06  9.147897E-06 -2.841568E-04
        15 -1.042954E-06  1.610214E-05 -5.675865E-04
        16 -1.400989E-17  1.505326E-05 -5.678388E-04
        17  1.042954E-06  1.610214E-05 -5.675865E-04
        18  2.136659E-06  9.147897E-06 -2.841568E-04
        19  0.000000E+00  0.000000E+00  0.000000E+00
        20 -2.089837E-06  9.297922E-06  2.854798E-04
        21 -1.089146E-06  1.636709E-05 -5.697314E-04
        22  2.577830E-17  1.546610E-05 -5.697918E-04
        23  1.089146E-06  1.636709E-05 -5.697314E-04
        24  2.089837E-06  9.297922E-06 -2.854798E-04
        25  0.000000E+00  0.000000E+00  0.000000E+00
        26 -2.136659E-06  9.147897E-06  2.841568E-04
        27 -1.042954E-06  1.610214E-05  5.675865E-04
        28 -1.399690E-17  1.505326E-05  5.678388E-04
        29  1.042954E-06  1.610214E-05  5.675865E-04
        30  2.136659E-06  9.147897E-06  2.841568E-04
        31  0.000000E+00  0.000000E+00  0.000000E+00
        32 -2.089837E-06  9.297922E-06 -2.854798E-04
        33  4.466192E-06  5.884989E-04  5.624170E-04
        34  1.076038E-05  1.162046E-03  5.359764E-04
        35  1.644151E-05  1.688730E-03  4.917121E-04
        36  2.120385E-05  2.169817E-03  4.291601E-04
        37  2.635575E-05  2.571229E-03  3.487421E-04
        38  3.214183E-05  2.892164E-03  2.523581E-04
        39  3.859267E-05  3.100142E-03  1.324209E-04
        40  4.123738E-05  3.177132E-03 -1.524437E-17
        41  3.859267E-05  3.100142E-03 -1.324209E-04
        42  3.214183E-05  2.892164E-03 -2.523581E-04
        43  2.635575E-05  2.571229E-03 -3.487421E-04
        44  2.120385E-05  2.169817E-03 -4.291601E-04
        45  1.644151E-05  1.688730E-03 -4.917121E-04
        46  1.076038E-05  1.162046E-03 -5.359764E-04
        47  4.466192E-06  5.884989E-04 -5.624170E-04
        48 -4.466192E-06  5.884989E-04 -5.624170E-04
        49 -1.076038E-05  1.162046E-03 -5.359764E-04
        50 -1.644151E-05  1.688730E-03 -4.917121E-04
        51 -2.120385E-05  2.169817E-03 -4.291601E-04
        52 -2.635575E-05  2.571229E-03 -3.487421E-04
        53 -3.214183E-05  2.892164E-03 -2.523581E-04
        54 -3.859267E-05  3.100142E-03 -1.324209E-04
        55 -4.123738E-05  3.177132E-03 -5.027912E-18
        56 -3.859267E-05  3.100142E-03  1.324209E-04
        57 -3.214183E-05  2.892164E-03  2.523581E-04
        58 -2.635575E-05  2.571229E-03  3.487421E-04
        59 -2.120385E-05  2.169817E-03  4.291601E-04
        60 -1.644151E-05  1.688730E-03  4.917121E-04
        61 -1.076038E-05  1.162046E-03  5.359764E-04
        62 -4.466192E-06  5.884989E-04  5.624170E-04
        63 -4.492782E-06  5.872008E-04 -5.611748E-04
        64 -1.061997E-05  1.161523E-03 -5.346607E-04
        65 -1.712776E-05  1.688254E-03 -4.904646E-04
        66 -2.109937E-05  2.171119E-03 -4.273873E-04
        67 -2.627394E-05  2.568863E-03 -3.472049E-04
        68 -2.817711E-05  2.894802E-03 -2.495301E-04
        69 -4.407479E-05  3.100845E-03 -1.315356E-04
        70 -6.229122E-05  3.239424E-03 -2.103008E-17
        71 -4.407479E-05  3.100845E-03  1.315356E-04
        72 -2.817711E-05  2.894802E-03  2.495301E-04
        73 -2.627394E-05  2.568863E-03  3.472049E-04
        74 -2.109937E-05  2.171119E-03  4.273873E-04
        75 -1.712776E-05  1.688254E-03  4.904646E-04
        76 -1.061997E-05  1.161523E-03  5.346607E-04
        77 -4.492782E-06  5.872008E-04  5.611748E-04
        78  4.492782E-06  5.872008E-04 -5.611748E-04
        79  1.061997E-05  1.161523E-03 -5.346607E-04
        80  1.712776E-05  1.688254E-03 -4.904646E-04
        81  2.109937E-05  2.171119E-03 -4.273873E-04
        82  2.627394E-05  2.568863E-03 -3.472049E-04
        83  2.817711E-05  2.894802E-03 -2.495301E-04
        84  4.407479E-05  3.100845E-03 -1.315356E-04
        85  6.229122E-05  3.239424E-03 -1.387641E-17
        86  4.407479E-05  3.100845E-03  1.315356E-04
        87  2.817711E-05  2.894802E-03  2.495301E-04
        88  2.627394E-05  2.568863E-03  3.472049E-04
        89  2.109937E-05  2.171119E-03  4.273873E-04
        90  1.712776E-05  1.688254E-03  4.904646E-04
        91  1.061997E-05  1.161523E-03  5.346607E-04
        92  4.492782E-06  5.872008E-04  5.611748E-04
        93 -5.715434E-19  8.415878E-06  2.853873E-04
        94  0.000000E+00  0.000000E+00  0.000000E+00
        95  0.000000E+00  0.000000E+00  0.000000E+00
        96  0.000000E+00  0.000000E+00  0.000000E+00
        97 -6.880794E-18  8.154220E-06 -2.841158E-04
        98  1.277736E-17  8.415878E-06 -2.853873E-04
        99  0.000000E+00  0.000000E+00  0.000000E+00
       100  0.000000E+00  0.000000E+00  0.000000E+00
       101  0.000000E+00  0.000000E+00  0.000000E+00
       102 -9.816173E-18  8.154220E-06  2.841158E-04
       103  9.077645E-20  5.868274E-04  5.632366E-04
       104 -5.358286E-06  1.157585E-03  5.373964E-04
       105 -3.365252E-17  1.155755E-03  5.371203E-04
       106  5.358286E-06  1.157585E-03  5.373964E-04
       107 -6.368092E-17  1.680832E-03  4.928756E-04
       108 -1.060159E-05  2.161110E-03  4.301548E-04
       109 -9.215560E-17  2.158022E-03  4.300020E-04
       110  1.060159E-05  2.161110E-03  4.301548E-04
       111 -1.109405E-16  2.558799E-03  3.501851E-04
       112 -1.608737E-05  2.880071E-03  2.534111E-04
       113 -1.395708E-16  2.874987E-03  2.528273E-04
       114  1.608737E-05  2.880071E-03  2.534111E-04
       115 -1.625395E-16  3.080605E-03  1.335062E-04
       116 -2.048144E-05  3.157905E-03 -9.369363E-18
       117 -1.474560E-16  3.154525E-03 -1.092634E-17
       118  2.048144E-05  3.157905E-03 -1.511557E-17
       119 -1.485306E-16  3.080605E-03 -1.335062E-04
       120 -1.608737E-05  2.880071E-03 -2.534111E-04
       121 -1.137379E-16  2.874987E-03 -2.528273E-04
       122  1.608737E-05  2.880071E-03 -2.534111E-04
       123 -7.389368E-17  2.558799E-03 -3.501851E-04
       124 -1.060159E-05  2.161110E-03 -4.301548E-04
       125 -5.218923E-17  2.158022E-03 -4.300020E-04
       126  1.060159E-05  2.161110E-03 -4.301548E-04
       127 -1.659938E-17  1.680832E-03 -4.928756E-04
       128 -5.358286E-06  1.157585E-03 -5.373964E-04
       129  1.644683E-18  1.155755E-03 -5.371203E-04
       130  5.358286E-06  1.157585E-03 -5.373964E-04
       131  1.470749E-17  5.868274E-04 -5.632366E-04
       132 -1.362790E-07  5.967376E-04  4.806523E-07
       133  5.112444E-06  1.161957E-03  2.645950E-04
       134 -1.149562E-07  1.159642E-03  5.349697E-07
       135 -5.233710E-06  1.161713E-03 -2.633571E-04
       136 -4.619378E-08  1.698521E-03  7.114322E-07
       137  1.050043E-05  2.174786E-03  2.123409E-04
       138 -2.348012E-07  2.174558E-03  5.930526E-07
       139 -1.024279E-05  2.175395E-03 -2.110727E-04
       140 -7.765053E-08  2.588040E-03  9.732419E-07
       141  1.632422E-05  2.901547E-03  1.225531E-04
       142  7.424842E-08  2.902008E-03 -3.923124E-07
       143 -1.600568E-05  2.903199E-03 -1.207321E-04
       144 -6.276552E-07  3.120909E-03  4.034091E-06
       145  1.879646E-05  3.188871E-03 -1.731947E-17
       146 -7.466776E-07  3.193158E-03 -1.956047E-17
       147 -2.315434E-05  3.218749E-03 -1.962759E-17
       148 -6.276552E-07  3.120909E-03 -4.034091E-06
       149  1.632422E-05  2.901547E-03 -1.225531E-04
       150  7.424842E-08  2.902008E-03  3.923124E-07
       151 -1.600568E-05  2.903199E-03  1.207321E-04
       152 -7.765053E-08  2.588040E-03 -9.732419E-07
       153  1.050043E-05  2.174786E-03 -2.123409E-04
       154 -2.348012E-07  2.174558E-03 -5.930526E-07
       155 -1.024279E-05  2.175395E-03  2.110727E-04
       156 -4.619378E-08  1.698521E-03 -7.114322E-07
       157  5.112444E-06  1.161957E-03 -2.645950E-04
       158 -1.149562E-07  1.159642E-03 -5.349697E-07
       159 -5.233710E-06  1.161713E-03  2.633571E-04
       160 -1.362790E-07  5.967376E-04 -4.806523E-07
       161 -4.639950E-17  5.858503E-04 -5.619710E-04
       162 -5.308890E-06  1.157077E-03 -5.361945E-04
       163 -7.880629E-17  1.154818E-03 -5.358927E-04
       164  5.308890E-06  1.157077E-03 -5.361945E-04
       165 -9.938720E-17  1.680382E-03 -4.915522E-04
       166 -1.045726E-05  2.160581E-03 -4.284291E-04
       167 -1.333872E-16  2.157415E-03 -4.287457E-04
       168  1.045726E-05  2.160581E-03 -4.284291E-04
       169 -1.653156E-16  2.558391E-03 -3.480732E-04
       170 -1.449266E-05  2.884133E-03 -2.510308E-04
       171 -1.996344E-16  2.873727E-03 -2.498501E-04
       172  1.449266E-05  2.884133E-03 -2.510308E-04
       173 -2.160235E-16  3.082276E-03 -1.343675E-04
       174 -2.987838E-05  3.188990E-03 -2.049215E-17
       175 -2.096855E-16  3.179977E-03 -1.687388E-17
       176  2.987838E-05  3.188990E-03 -1.715545E-17
       177 -2.035861E-16  3.082276E-03  1.343675E-04
       178 -1.449266E-05  2.884133E-03  2.510308E-04
       179 -1.762107E-16  2.873727E-03  2.498501E-04
       180  1.449266E-05  2.884133E-03  2.510308E-04
       181 -1.400643E-16  2.558391E-03  3.480732E-04
       182 -1.045726E-05  2.160581E-03  4.284291E-04
       183 -1.017469E-16  2.157415E-03  4.287457E-04
       184  1.045726E-05  2.160581E-03  4.284291E-04
       185 -7.966522E-17  1.680382E-03  4.915522E-04
       186 -5.308890E-06  1.157077E-03  5.361945E-04
       187 -6.997762E-17  1.154818E-03  5.358927E-04
       188  5.308890E-06  1.157077E-03  5.361945E-04
       189 -3.689415E-17  5.858503E-04  5.619710E-04
       190  1.362790E-07  5.967376E-04  4.806523E-07
       191  5.233710E-06  1.161713E-03 -2.633571E-04
       192  1.149562E-07  1.159642E-03  5.349697E-07
       193 -5.112444E-06  1.161957E-03  2.645950E-04
       194  4.619378E-08  1.698521E-03  7.114322E-07
       195  1.024279E-05  2.175395E-03 -2.110727E-04
       196  2.348012E-07  2.174558E-03  5.930526E-07
       197 -1.050043E-05  2.174786E-03  2.123409E-04
       198  7.765053E-08  2.588040E-03  9.732419E-07
       199  1.600568E-05  2.903199E-03 -1.207321E-04
       200 -7.424842E-08  2.902008E-03 -3.923124E-07
       201 -1.632422E-05  2.901547E-03  1.225531E-04
       202  6.276552E-07  3.120909E-03  4.034091E-06
       203  2.315434E-05  3.218749E-03 -1.272218E-17
       204  7.466776E-07  3.193158E-03 -8.508300E-18
       205 -1.879646E-05  3.188871E-03 -5.634511E-18
       206  6.276552E-07  3.120909E-03 -4.034091E-06
       207  1.600568E-05  2.903199E-03  1.207321E-04
       208 -7.424842E-08  2.902008E-03  3.923124E-07
       209 -1.632422E-05  2.901547E-03 -1.225531E-04
       210  7.765053E-08  2.588040E-03 -9.732419E-07
       211  1.024279E-05  2.175395E-03  2.110727E-04
       212  2.348012E-07  2.174558E-03 -5.930526E-07
       213 -1.050043E-05  2.174786E-03 -2.123409E-04
       214  4.619378E-08  1.698521E-03 -7.114322E-07
       215  5.233710E-06  1.161713E-03  2.633571E-04
       216  1.149562E-07  1.159642E-03 -5.349697E-07
       217 -5.112444E-06  1.161957E-03 -2.645950E-04
       218  1.362790E-07  5.967376E-04 -4.806523E-07
       219 -2.498814E-17  5.933450E-04  4.439145E-07
       220 -4.549482E-17  1.156750E-03  2.659941E-04
       221  5.078930E-08  1.156124E-03  6.289568E-07
       222 -5.259988E-17  1.155461E-03  6.744641E-07
       223 -5.078930E-08  1.156124E-03  6.289568E-07
       224 -6.543268E-17  1.156238E-03 -2.648100E-04
       225 -7.970867E-17  1.689844E-03  6.424772E-07
       226 -9.965712E-17  2.164276E-03  2.133464E-04
       227  1.353667E-07  2.167517E-03  6.320895E-07
       228 -1.112411E-16  2.165279E-03  7.630003E-07
       229 -1.353667E-07  2.167517E-03  6.320895E-07
       230 -1.250942E-16  2.164108E-03 -2.118938E-04
       231 -1.414723E-16  2.573838E-03  8.525023E-07
       232 -1.561078E-16  2.886128E-03  1.240075E-04
       233 -9.372145E-08  2.890235E-03  1.710086E-07
       234 -1.689763E-16  2.888615E-03  5.877159E-07
       235  9.372145E-08  2.890235E-03  1.710086E-07
       236 -1.786601E-16  2.885200E-03 -1.218072E-04
       237 -1.870886E-16  3.099354E-03  2.724364E-06
       238 -1.624933E-16  3.168678E-03 -1.269738E-17
       239  5.245852E-08  3.181977E-03 -1.249195E-17
       240 -1.799710E-16  3.173517E-03 -1.621895E-17
       241 -5.245852E-08  3.181977E-03 -1.789091E-17
       242 -1.944855E-16  3.181444E-03 -1.738424E-17
       243 -1.777316E-16  3.099354E-03 -2.724364E-06
       244 -1.359687E-16  2.886128E-03 -1.240075E-04
       245 -9.372145E-08  2.890235E-03 -1.710086E-07
       246 -1.514577E-16  2.888615E-03 -5.877159E-07
       247  9.372145E-08  2.890235E-03 -1.710086E-07
       248 -1.600023E-16  2.885200E-03  1.218072E-04
       249 -1.098784E-16  2.573838E-03 -8.525023E-07
       250 -6.193425E-17  2.164276E-03 -2.133464E-04
       251  1.353667E-07  2.167517E-03 -6.320895E-07
       252 -7.213199E-17  2.165279E-03 -7.630003E-07
       253 -1.353667E-07  2.167517E-03 -6.320895E-07
       254 -8.834968E-17  2.164108E-03  2.118938E-04
       255 -4.591848E-17  1.689844E-03 -6.424772E-07
       256 -7.744224E-18  1.156750E-03 -2.659941E-04
       257  5.078930E-08  1.156124E-03 -6.289568E-07
       258 -1.990403E-17  1.155461E-03 -6.744641E-07
       259 -5.078930E-08  1.156124E-03 -6.289568E-07
       260 -4.413564E-17  1.156238E-03  2.648100E-04
       261 -1.607995E-17  5.933450E-04 -4.439145E-07

 stresses (elem, integ.pnt.,sxx,syy,szz,sxy,sxz,syz) for set EALL and time  0.1000000E+01

         1   1  1.951564E-01 -5.266417E-01 -2.253869E+00 -1.504075E-01 -3.346607E-02  1.186696E+00
         1   2  2.817972E-01 -7.160612E-01 -2.080838E+00 -1.091144E-01 -3.319005E-02  1.083318E+00
         1   3 -8.097524E-01 -2.386065E+00 -1.703051E+00  2.133650E-01  4.257483E-02  3.900218E+00
         1   4 -7.787632E-01 -2.458959E+00 -1.615311E+00 -1.332238E-02  7.689316E-04  3.589866E+00
         1   5  7.597909E-02  1.055588E+00 -9.241180E+00 -3.964390E-02 -2.103603E-01  2.248027E+00
         1   6  1.046496E-01  1.008190E+00 -9.104837E+00  1.137111E-02 -1.631834E-01  1.905656E+00
         1   7  2.135444E-01  1.063184E+00 -2.496272E+00 -6.383834E-02  3.367394E-02  3.051541E+00
         1   8  2.535684E-01  1.037660E+00 -2.364046E+00  1.672312E-02  9.345997E-03  2.702661E+00
         2   1  2.817972E-01 -7.160612E-01 -2.080838E+00  1.091144E-01  3.319005E-02  1.083318E+00
         2   2  1.951564E-01 -5.266417E-01 -2.253869E+00  1.504075E-01  3.346607E-02  1.186696E+00
         2   3 -7.787632E-01 -2.458959E+00 -1.615311E+00  1.332238E-02 -7.689316E-04  3.589866E+00
         2   4 -8.097524E-01 -2.386065E+00 -1.703051E+00 -2.133650E-01 -4.257483E-02  3.900218E+00
         2   5  1.046496E-01  1.008190E+00 -9.104837E+00 -1.137111E-02  1.631834E-01  1.905656E+00
         2   6  7.597909E-02  1.055588E+00 -9.241180E+00  3.964390E-02  2.103603E-01  2.248027E+00
         2   7  2.535684E-01  1.037660E+00 -2.364046E+00 -1.672312E-02 -9.345997E-03  2.702661E+00
         2   8  2.135444E-01  1.063184E+00 -2.496272E+00  6.383834E-02 -3.367394E-02  3.051541E+00
         3   1  9.230265E-01  2.472094E+00  2.248491E+00  2.334946E-01 -1.659758E-02  4.111790E+00
         3   2  8.999485E-01  2.588218E+00  2.155924E+00 -4.489629E-03 -3.477417E-04  3.824588E+00
         3   3 -2.317834E-01  5.203556E-01  2.206674E+00 -1.732535E-01  3.808655E-02  1.190596E+00
         3   4 -3.145963E-01  7.446513E-01  2.106260E+00 -1.132680E-01  3.244442E-02  1.112688E+00
         3   5 -3.018710E-01 -1.179613E+00  2.716788E+00 -6.416407E-02 -4.149316E-02  3.096879E+00
         3   6 -3.102568E-01 -1.133017E+00  2.643143E+00  6.114068E-04 -1.918205E-02  2.704356E+00
         3   7 -1.176073E-02 -1.060952E+00  9.545390E+00 -4.531895E-02  1.683961E-01  2.342915E+00
         3   8 -7.662040E-02 -1.002622E+00  9.367304E+00 -4.858286E-02  1.671063E-01  1.948219E+00
         4   1  8.999485E-01  2.588218E+00  2.155924E+00  4.489629E-03  3.477417E-04  3.824588E+00
         4   2  9.230265E-01  2.472094E+00  2.248491E+00 -2.334946E-01  1.659758E-02  4.111790E+00
         4   3 -3.145963E-01  7.446513E-01  2.106260E+00  1.132680E-01 -3.244442E-02  1.112688E+00
         4   4 -2.317834E-01  5.203556E-01  2.206674E+00  1.732535E-01 -3.808655E-02  1.190596E+00
         4   5 -3.102568E-01 -1.133017E+00  2.643143E+00 -6.114068E-04  1.918205E-02  2.704356E+00
         4   6 -3.018710E-01 -1.179613E+00  2.716788E+00  6.416407E-02  4.149316E-02  3.096879E+00
         4   7 -7.662040E-02 -1.002622E+00  9.367304E+00  4.858286E-02 -1.671063E-01  1.948219E+00
         4   8 -1.176073E-02 -1.060952E+00  9.545390E+00  4.531895E-02 -1.683961E-01  2.342915E+00
         5   1 -1.224445E-01 -7.379379E-01 -1.420169E+01  6.141141E-02 -1.315300E-01  8.752184E-01
         5   2 -1.439673E-01 -7.025985E-01 -1.422216E+01  1.089575E-03 -1.647016E-01  7.151541E-01
         5   3 -6.978898E-02 -3.275179E-01 -3.628583E+00 -2.171340E-02  6.834915E-03  4.535203E+00
         5   4 -1.044043E-01 -3.463448E-01 -3.708841E+00 -1.135257E-02  4.890212E-03  3.890991E+00
         5   5  4.525123E-02 -9.048866E-02 -2.102699E+01 -6.767898E-04 -1.048217E-01  1.866129E+00
         5   6  4.541046E-02 -7.911486E-04 -2.107348E+01 -5.309117E-03 -1.219837E-01  1.586040E+00
         5   7  1.003445E-01  1.658998E-01 -5.412186E+00  7.941037E-02  2.056648E-02  3.350532E+00
         5   8  1.220002E-01  2.609588E-01 -5.363023E+00 -4.007294E-02  2.505811E-02  3.034912E+00
         6   1 -1.439673E-01 -7.025985E-01 -1.422216E+01 -1.089575E-03  1.647016E-01  7.151541E-01
         6   2 -1.224445E-01 -7.379379E-01 -1.420169E+01 -6.141141E-02  1.315300E-01  8.752184E-01
         6   3 -1.044043E-01 -3.463448E-01 -3.708841E+00  1.135257E-02 -4.890212E-03  3.890991E+00
         6   4 -6.978898E-02 -3.275179E-01 -3.628583E+00  2.171340E-02 -6.834915E-03  4.535203E+00
         6   5  4.541046E-02 -7.911486E-04 -2.107348E+01  5.309117E-03  1.219837E-01  1.586040E+00
         6   6  4.525123E-02 -9.048866E-02 -2.102699E+01  6.767898E-04  1.048217E-01  1.866129E+00
         6   7  1.220002E-01  2.609588E-01 -5.363023E+00  4.007294E-02 -2.505811E-02  3.034912E+00
         6   8  1.003445E-01  1.658998E-01 -5.412186E+00 -7.941037E-02 -2.056648E-02  3.350532E+00
         7   1  1.144161E-01  3.839757E-01  3.940270E+00  7.036297E-03 -2.362310E-02  4.506349E+00
         7   2  1.341199E-01  3.887719E-01  3.965887E+00 -1.926118E-03 -1.826906E-02  3.876464E+00
         7   3  3.964502E-02  7.140396E-01  1.440969E+01  1.138539E-01  1.936523E-01  8.433576E-01
         7   4  1.100351E-01  7.383538E-01  1.451416E+01  2.388171E-02  1.822051E-01  7.571634E-01
         7   5 -1.426277E-02 -5.196209E-03  5.609941E+00 -6.936521E-02 -1.767713E-02  3.384104E+00
         7   6 -6.089073E-02 -2.115207E-01  5.626257E+00 -3.283602E-02 -2.836138E-03  3.054924E+00
         7   7  2.405951E-02  3.149410E-01  2.142586E+01 -1.676713E-01  3.155899E-02  2.104946E+00
         7   8 -4.054291E-02 -1.175424E-01  2.128786E+01  1.183596E-01  4.783499E-02  1.618150E+00
         8   1  1.341199E-01  3.887719E-01  3.965887E+00  1.926118E-03  1.826906E-02  3.876464E+00
         8   2  1.144161E-01  3.839757E-01  3.940270E+00 -7.036297E-03  2.362310E-02  4.506349E+00
         8   3  1.100351E-01  7.383538E-01  1.451416E+01 -2.388171E-02 -1.822051E-01  7.571634E-01
         8   4  3.964502E-02  7.140396E-01  1.440969E+01 -1.138539E-01 -1.936523E-01  8.433576E-01
         8   5 -6.089073E-02 -2.115207E-01  5.626257E+00  3.283602E-02  2.836138E-03  3.054924E+00
         8   6 -1.426277E-02 -5.196209E-03  5.609941E+00  6.936521E-02  1.767713E-02  3.384104E+00
         8   7 -4.054291E-02 -1.175424E-01  2.128786E+01 -1.183596E-01 -4.783499E-02  1.618150E+00
         8   8  2.405951E-02  3.149410E-01  2.142586E+01  1.676713E-01 -3.155899E-02  2.104946E+00
         9   1 -6.763786E-02  1.747389E-01 -2.612915E+01 -1.582591E-02 -1.280317E-01  1.207122E+00
         9   2 -5.591596E-02  8.713386E-02 -2.601541E+01  1.555633E-02 -1.064107E-01  1.059627E+00
         9   3  3.814282E-02  1.952429E-01 -6.835701E+00 -2.996917E-02 -3.683973E-02  4.263328E+00
         9   4 -4.423833E-02  2.401608E-02 -6.931758E+00 -1.939129E-02 -3.144217E-03  3.607781E+00
         9   5  2.315142E-01  3.606326E-01 -3.239717E+01  1.674653E-03 -1.514165E-01  1.596818E+00
         9   6  2.061081E-01  3.076853E-01 -3.254983E+01 -3.483350E-02 -1.701708E-01  1.322766E+00
         9   7 -4.752757E-01 -8.505538E-01 -9.558454E+00 -1.222186E-01  4.215547E-02  3.190792E+00
         9   8 -2.075572E-01 -5.482460E-01 -9.193550E+00  2.629384E-01  2.693258E-02  2.963561E+00
        10   1 -5.591596E-02  8.713386E-02 -2.601541E+01 -1.555633E-02  1.064107E-01  1.059627E+00
        10   2 -6.763786E-02  1.747389E-01 -2.612915E+01  1.582591E-02  1.280317E-01  1.207122E+00
        10   3 -4.423833E-02  2.401608E-02 -6.931758E+00  1.939129E-02  3.144217E-03  3.607781E+00
        10   4  3.814282E-02  1.952429E-01 -6.835701E+00  2.996917E-02  3.683973E-02  4.263328E+00
        10   5  2.061081E-01  3.076853E-01 -3.254983E+01  3.483350E-02  1.701708E-01  1.322766E+00
        10   6  2.315142E-01  3.606326E-01 -3.239717E+01 -1.674653E-03  1.514165E-01  1.596818E+00
        10   7 -2.075572E-01 -5.482460E-01 -9.193550E+00 -2.629384E-01 -2.693258E-02  2.963561E+00
        10   8 -4.752757E-01 -8.505538E-01 -9.558454E+00  1.222186E-01 -4.215547E-02  3.190792E+00
        11   1 -9.233704E-02 -3.518558E-01  7.295247E+00  1.626947E-02  7.402686E-02  4.171529E+00
        11   2  8.474925E-03  1.791228E-02  7.290332E+00  1.460001E-02  8.390808E-03  3.632196E+00
        11   3 -2.208338E-01 -6.201245E-01  2.612563E+01  1.088185E-01  2.878730E-01  9.363334E-01
        11   4 -6.389607E-02 -1.846538E-01  2.628055E+01  1.269270E-01  1.577871E-01  1.122610E+00
        11   5  3.093946E-01  1.353493E+00  9.136222E+00  1.984431E-01 -4.446731E-02  3.736257E+00
        11   6  7.588586E-02  8.368157E-01  9.075875E+00  8.821541E-02  1.235582E-02  3.234989E+00
        11   7  7.876892E-01  5.974673E-01  3.330922E+01  8.187545E-02 -2.326319E-01  2.326385E+00
        11   8  3.496403E-01  6.509988E-01  3.326603E+01 -9.661690E-01  2.360316E-01  1.626909E+00
        12   1  8.474925E-03  1.791228E-02  7.290332E+00 -1.460001E-02 -8.390808E-03  3.632196E+00
        12   2 -9.233704E-02 -3.518558E-01  7.295247E+00 -1.626947E-02 -7.402686E-02  4.171529E+00
        12   3 -6.389607E-02 -1.846538E-01  2.628055E+01 -1.269270E-01 -1.577871E-01  1.122610E+00
        12   4 -2.208338E-01 -6.201245E-01  2.612563E+01 -1.088185E-01 -2.878730E-01  9.363334E-01
        12   5  7.588586E-02  8.368157E-01  9.075875E+00 -8.821541E-02 -1.235582E-02  3.234989E+00
        12   6  3.093946E-01  1.353493E+00  9.136222E+00 -1.984431E-01  4.446731E-02  3.736257E+00
        12   7  3.496403E-01  6.509988E-01  3.326603E+01  9.661690E-01 -2.360316E-01  1.626909E+00
        12   8  7.876892E-01  5.974673E-01  3.330922E+01 -8.187545E-02  2.326319E-01  2.326385E+00
        13   1 -1.758836E-01 -5.566247E-01 -3.879265E+01  8.935875E-03 -2.239444E-01  1.849029E+00
        13   2 -1.433011E-01 -4.984991E-01 -3.881303E+01 -5.437971E-02 -1.819055E-01  1.533100E+00
        13   3  5.506611E-01  4.175640E-01 -8.309855E+00 -3.741312E-02  6.041954E-02  5.036593E+00
        13   4  4.499196E-01  1.524740E-01 -8.931117E+00 -1.060339E-01 -4.785664E-02  4.115258E+00
        13   5 -7.970163E-02  3.111332E-01 -4.422282E+01 -4.234993E-02 -4.082087E-02  1.180086E+00
        13   6 -1.071742E-01  5.424158E-01 -4.437200E+01  3.160239E-01 -2.494368E-02  9.148849E-01
        13   7 -2.423140E-01  2.006820E+00 -1.234719E+01  3.129406E-01 -6.407564E-02  1.510769E+00
        13   8  5.832465E-02  1.639349E+00 -1.218480E+01 -9.427869E-01 -1.109453E-01  1.492554E+00
        14   1 -1.433011E-01 -4.984991E-01 -3.881303E+01  5.437971E-02  1.819055E-01  1.533100E+00
        14   2 -1.758836E-01 -5.566247E-01 -3.879265E+01 -8.935875E-03  2.239444E-01  1.849029E+00
        14   3  4.499196E-01  1.524740E-01 -8.931117E+00  1.060339E-01  4.785664E-02  4.115258E+00
        14   4  5.506611E-01  4.175640E-01 -8.309855E+00  3.741312E-02 -6.041954E-02  5.036593E+00
        14   5 -1.071742E-01  5.424158E-01 -4.437200E+01 -3.160239E-01  2.494368E-02  9.148849E-01
        14   6 -7.970163E-02  3.111332E-01 -4.422282E+01  4.234993E-02  4.082087E-02  1.180086E+00
        14   7  5.832465E-02  1.639349E+00 -1.218480E+01  9.427869E-01  1.109453E-01  1.492554E+00
        14   8 -2.423140E-01  2.006820E+00 -1.234719E+01 -3.129406E-01  6.407564E-02  1.510769E+00
        15   1 -6.085031E-01 -1.974328E+00  1.055034E+01 -1.114028E-01 -2.814071E-01  4.238347E+00
        15   2 -2.833352E-01 -1.197133E+00  1.035407E+01 -3.208920E-02 -1.914226E-01  3.400745E+00
        15   3 -7.676914E-01 -2.180545E+00  3.766223E+01  2.939782E-01  3.860156E-01 -3.036990E-01
        15   4 -6.330327E-01 -1.339834E+00  3.737738E+01  3.569715E-01  1.502334E-01  1.332297E-01
        15   5  1.513651E+00  5.511589E+00  1.197639E+01 -8.372860E-01 -2.056515E-01  2.456826E+00
        15   6  1.291844E+00  2.545500E+00  1.160365E+01 -6.566582E-01 -2.168854E-01  1.732947E+00
        15   7 -8.176598E-01  8.538657E+00  4.566651E+01 -1.677031E+00  9.538102E-01  6.916352E+00
        15   8 -9.654215E-01  3.704727E+00  4.498770E+01  1.963224E+00  8.486829E-02  3.793469E+00
        16   1 -2.833352E-01 -1.197133E+00  1.035407E+01  3.208920E-02  1.914226E-01  3.400745E+00
        16   2 -6.085031E-01 -1.974328E+00  1.055034E+01  1.114028E-01  2.814071E-01  4.238347E+00
        16   3 -6.330327E-01 -1.339834E+00  3.737738E+01 -3.569715E-01 -1.502334E-01  1.332297E-01
        16   4 -7.676914E-01 -2.180545E+00  3.766223E+01 -2.939782E-01 -3.860156E-01 -3.036990E-01
        16   5  1.291844E+00  2.545500E+00  1.160365E+01  6.566582E-01  2.168854E-01  1.732947E+00
        16   6  1.513651E+00  5.511589E+00  1.197639E+01  8.372860E-01  2.056515E-01  2.456826E+00
        16   7 -9.654215E-01  3.704727E+00  4.498770E+01 -1.963224E+00 -8.486829E-02  3.793469E+00
        16   8 -8.176598E-01  8.538657E+00  4.566651E+01  1.677031E+00 -9.538102E-01  6.916352E+00
        17   1 -7.970163E-02  3.111332E-01 -4.422282E+01 -4.234993E-02  4.082087E-02 -1.180086E+00
        17   2 -1.071742E-01  5.424158E-01 -4.437200E+01  3.160239E-01  2.494368E-02 -9.148849E-01
        17   3 -2.423140E-01  2.006820E+00 -1.234719E+01  3.129406E-01  6.407564E-02 -1.510769E+00
        17   4  5.832465E-02  1.639349E+00 -1.218480E+01 -9.427869E-01  1.109453E-01 -1.492554E+00
        17   5 -1.758836E-01 -5.566247E-01 -3.879265E+01  8.935875E-03  2.239444E-01 -1.849029E+00
        17   6 -1.433011E-01 -4.984991E-01 -3.881303E+01 -5.437971E-02  1.819055E-01 -1.533100E+00
        17   7  5.506611E-01  4.175640E-01 -8.309855E+00 -3.741312E-02 -6.041954E-02 -5.036593E+00
        17   8  4.499196E-01  1.524740E-01 -8.931117E+00 -1.060339E-01  4.785664E-02 -4.115258E+00
        18   1 -1.071742E-01  5.424158E-01 -4.437200E+01 -3.160239E-01 -2.494368E-02 -9.148849E-01
        18   2 -7.970163E-02  3.111332E-01 -4.422282E+01  4.234993E-02 -4.082087E-02 -1.180086E+00
        18   3  5.832465E-02  1.639349E+00 -1.218480E+01  9.427869E-01 -1.109453E-01 -1.492554E+00
        18   4 -2.423140E-01  2.006820E+00 -1.234719E+01 -3.129406E-01 -6.407564E-02 -1.510769E+00
        18   5 -1.433011E-01 -4.984991E-01 -3.881303E+01  5.437971E-02 -1.819055E-01 -1.533100E+00
        18   6 -1.758836E-01 -5.566247E-01 -3.879265E+01 -8.935875E-03 -2.239444E-01 -1.849029E+00
        18   7  4.499196E-01  1.524740E-01 -8.931117E+00  1.060339E-01 -4.785664E-02 -4.115258E+00
        18   8  5.506611E-01  4.175640E-01 -8.309855E+00  3.741312E-02  6.041954E-02 -5.036593E+00
        19   1  1.513651E+00  5.511589E+00  1.197639E+01 -8.372860E-01  2.056515E-01 -2.456826E+00
        19   2  1.291844E+00  2.545500E+00  1.160365E+01 -6.566582E-01  2.168854E-01 -1.732947E+00
        19   3 -8.176598E-01  8.538657E+00  4.566651E+01 -1.677031E+00 -9.538102E-01 -6.916352E+00
        19   4 -9.654215E-01  3.704727E+00  4.498770E+01  1.963224E+00 -8.486829E-02 -3.793469E+00
        19   5 -6.085031E-01 -1.974328E+00  1.055034E+01 -1.114028E-01  2.814071E-01 -4.238347E+00
        19   6 -2.833352E-01 -1.197133E+00  1.035407E+01 -3.208920E-02  1.914226E-01 -3.400745E+00
        19   7 -7.676914E-01 -2.180545E+00  3.766223E+01  2.939782E-01 -3.860156E-01  3.036990E-01
        19   8 -6.330327E-01 -1.339834E+00  3.737738E+01  3.569715E-01 -1.502334E-01 -1.332297E-01
        20   1  1.291844E+00  2.545500E+00  1.160365E+01  6.566582E-01 -2.168854E-01 -1.732947E+00
        20   2  1.513651E+00  5.511589E+00  1.197639E+01  8.372860E-01 -2.056515E-01 -2.456826E+00
        20   3 -9.654215E-01  3.704727E+00  4.498770E+01 -1.963224E+00  8.486829E-02 -3.793469E+00
        20   4 -8.176598E-01  8.538657E+00  4.566651E+01  1.677031E+00  9.538102E-01 -6.916352E+00
        20   5 -2.833352E-01 -1.197133E+00  1.035407E+01  3.208920E-02 -1.914226E-01 -3.400745E+00
        20   6 -6.085031E-01 -1.974328E+00  1.055034E+01  1.114028E-01 -2.814071E-01 -4.238347E+00
        20   7 -6.330327E-01 -1.339834E+00  3.737738E+01 -3.569715E-01  1.502334E-01 -1.332297E-01
        20   8 -7.676914E-01 -2.180545E+00  3.766223E+01 -2.939782E-01  3.860156E-01  3.036990E-01