
                        S T E P       1


                                INCREMENT     1


 displacements (vx,vy,vz) for set NOUT and time  0.1000000E+01

       262  1.000000E+00  0.000000E+00  0.000000E+00
       263  0.000000E+00  0.000000E+00  0.000000E+00
       264  0.000000E+00  0.000000E+00  0.000000E+00
       265  0.000000E+00  0.000000E+00  0.000000E+00
       266  0.000000E+00  0.000000E+00  0.000000E+00
       267  0.000000E+00  0.000000E+00  0.000000E+00
       268  0.000000E+00  0.000000E+00  0.000000E+00
       269  0.000000E+00  0.000000E+00  0.000000E+00

 forces (fx,fy,fz) for set NOUT and time  0.1000000E+01

       262  6.207355E+03  0.000000E+00  0.000000E+00
       263  4.770409E-03  0.000000E+00  0.000000E+00
       264  7.888720E-01  0.000000E+00  0.000000E+00
       265  1.462111E+03  0.000000E+00  0.000000E+00
       266  1.113837E-03  0.000000E+00  0.000000E+00
       267  7.252758E-10  0.000000E+00  0.000000E+00
       268 -7.726112E-01  1.918173E+03 -3.397858E-02
       269  1.471046E-03 -1.917367E+03  3.397895E-02
