
                        S T E P       1


                                INCREMENT     1


 displacements (vx,vy,vz) for set N1 and time  0.1000000E-05

       100  7.638031E-15  8.754578E-02 -5.760685E-04

 internal energy density (elem, integ.pnt.,energy) for set EALL and time  0.1000000E-05

         1   1  2.349393E-01
         1   2  2.220491E-01
         1   3  1.715704E-02
         1   4  1.568133E-02
         1   5  2.309821E-01
         1   6  2.460471E-01
         1   7  1.868574E-02
         1   8  1.941335E-02
         2   1  2.220491E-01
         2   2  2.349393E-01
         2   3  1.568133E-02
         2   4  1.715704E-02
         2   5  2.460471E-01
         2   6  2.309821E-01
         2   7  1.941335E-02
         2   8  1.868574E-02
         3   1  1.736653E-02
         3   2  1.588930E-02
         3   3  2.351725E-01
         3   4  2.223204E-01
         3   5  1.876643E-02
         3   6  1.956052E-02
         3   7  2.312376E-01
         3   8  2.465841E-01
         4   1  1.588930E-02
         4   2  1.736653E-02
         4   3  2.223204E-01
         4   4  2.351725E-01
         4   5  1.956052E-02
         4   6  1.876643E-02
         4   7  2.465841E-01
         4   8  2.312376E-01
         5   1  1.993699E-01
         5   2  1.923257E-01
         5   3  1.524890E-02
         5   4  1.473747E-02
         5   5  1.686153E-01
         5   6  1.712283E-01
         5   7  1.373544E-02
         5   8  1.371598E-02
         6   1  1.923257E-01
         6   2  1.993699E-01
         6   3  1.473747E-02
         6   4  1.524890E-02
         6   5  1.712283E-01
         6   6  1.686153E-01
         6   7  1.371598E-02
         6   8  1.373544E-02
         7   1  1.539787E-02
         7   2  1.492430E-02
         7   3  1.993715E-01
         7   4  1.924263E-01
         7   5  1.379251E-02
         7   6  1.380629E-02
         7   7  1.686218E-01
         7   8  1.713603E-01
         8   1  1.492430E-02
         8   2  1.539787E-02
         8   3  1.924263E-01
         8   4  1.993715E-01
         8   5  1.380629E-02
         8   6  1.379251E-02
         8   7  1.713603E-01
         8   8  1.686218E-01
         9   1  1.429257E-01
         9   2  1.416906E-01
         9   3  1.117300E-02
         9   4  1.083026E-02
         9   5  1.182117E-01
         9   6  1.184319E-01
         9   7  9.862982E-03
         9   8  9.549367E-03
        10   1  1.416906E-01
        10   2  1.429257E-01
        10   3  1.083026E-02
        10   4  1.117300E-02
        10   5  1.184319E-01
        10   6  1.182117E-01
        10   7  9.549367E-03
        10   8  9.862982E-03
        11   1  1.121998E-02
        11   2  1.089971E-02
        11   3  1.428318E-01
        11   4  1.416790E-01
        11   5  9.876729E-03
        11   6  9.580779E-03
        11   7  1.181174E-01
        11   8  1.184048E-01
        12   1  1.089971E-02
        12   2  1.121998E-02
        12   3  1.416790E-01
        12   4  1.428318E-01
        12   5  9.580779E-03
        12   6  9.876729E-03
        12   7  1.184048E-01
        12   8  1.181174E-01
        13   1  9.898407E-02
        13   2  9.875988E-02
        13   3  8.128841E-03
        13   4  7.865116E-03
        13   5  7.711490E-02
        13   6  7.706049E-02
        13   7  6.752354E-03
        13   8  6.462309E-03
        14   1  9.875988E-02
        14   2  9.898407E-02
        14   3  7.865116E-03
        14   4  8.128841E-03
        14   5  7.706049E-02
        14   6  7.711490E-02
        14   7  6.462309E-03
        14   8  6.752354E-03
        15   1  8.125392E-03
        15   2  7.876765E-03
        15   3  9.884454E-02
        15   4  9.867496E-02
        15   5  6.735109E-03
        15   6  6.455393E-03
        15   7  7.697297E-02
        15   8  7.695458E-02
        16   1  7.876765E-03
        16   2  8.125392E-03
        16   3  9.867496E-02
        16   4  9.884454E-02
        16   5  6.455393E-03
        16   6  6.735109E-03
        16   7  7.695458E-02
        16   8  7.697297E-02
        17   1  6.199731E-02
        17   2  6.194340E-02
        17   3  5.603744E-03
        17   4  5.324188E-03
        17   5  4.496181E-02
        17   6  4.487205E-02
        17   7  4.391266E-03
        17   8  4.122775E-03
        18   1  6.194340E-02
        18   2  6.199731E-02
        18   3  5.324188E-03
        18   4  5.603744E-03
        18   5  4.487205E-02
        18   6  4.496181E-02
        18   7  4.122775E-03
        18   8  4.391266E-03
        19   1  5.579581E-03
        19   2  5.306390E-03
        19   3  6.184028E-02
        19   4  6.181263E-02
        19   5  4.361508E-03
        19   6  4.097764E-03
        19   7  4.481597E-02
        19   8  4.474024E-02
        20   1  5.306390E-03
        20   2  5.579581E-03
        20   3  6.181263E-02
        20   4  6.184028E-02
        20   5  4.097764E-03
        20   6  4.361508E-03
        20   7  4.474024E-02
        20   8  4.481597E-02
        21   1  3.365702E-02
        21   2  3.365255E-02
        21   3  3.608233E-03
        21   4  3.309135E-03
        21   5  2.158995E-02
        21   6  2.145062E-02
        21   7  2.670031E-03
        21   8  2.412875E-03
        22   1  3.365255E-02
        22   2  3.365702E-02
        22   3  3.309135E-03
        22   4  3.608233E-03
        22   5  2.145062E-02
        22   6  2.158995E-02
        22   7  2.412875E-03
        22   8  2.670031E-03
        23   1  3.577690E-03
        23   2  3.280752E-03
        23   3  3.351509E-02
        23   4  3.352294E-02
        23   5  2.636937E-03
        23   6  2.384121E-03
        23   7  2.147052E-02
        23   8  2.133426E-02
        24   1  3.280752E-03
        24   2  3.577690E-03
        24   3  3.352294E-02
        24   4  3.351509E-02
        24   5  2.384121E-03
        24   6  2.636937E-03
        24   7  2.133426E-02
        24   8  2.147052E-02
        25   1  1.381789E-02
        25   2  1.380581E-02
        25   3  2.303680E-03
        25   4  1.981112E-03
        25   5  6.973151E-03
        25   6  6.787576E-03
        25   7  1.426866E-03
        25   8  1.207149E-03
        26   1  1.380581E-02
        26   2  1.381789E-02
        26   3  1.981112E-03
        26   4  2.303680E-03
        26   5  6.787576E-03
        26   6  6.973151E-03
        26   7  1.207149E-03
        26   8  1.426866E-03
        27   1  2.278883E-03
        27   2  1.955416E-03
        27   3  1.371290E-02
        27   4  1.370669E-02
        27   5  1.412899E-03
        27   6  1.188346E-03
        27   7  6.887539E-03
        27   8  6.705976E-03
        28   1  1.955416E-03
        28   2  2.278883E-03
        28   3  1.370669E-02
        28   4  1.371290E-02
        28   5  1.188346E-03
        28   6  1.412899E-03
        28   7  6.705976E-03
        28   8  6.887539E-03
        29   1  2.536240E-03
        29   2  2.701314E-03
        29   3  1.709187E-03
        29   4  1.271545E-03
        29   5  1.417269E-03
        29   6  5.215870E-04
        29   7  1.557967E-03
        29   8  6.233108E-04
        30   1  2.701314E-03
        30   2  2.536240E-03
        30   3  1.271545E-03
        30   4  1.709187E-03
        30   5  5.215870E-04
        30   6  1.417269E-03
        30   7  6.233108E-04
        30   8  1.557967E-03
        31   1  1.701318E-03
        31   2  1.265391E-03
        31   3  2.495570E-03
        31   4  2.663279E-03
        31   5  1.530720E-03
        31   6  6.176079E-04
        31   7  1.388756E-03
        31   8  5.179249E-04
        32   1  1.265391E-03
        32   2  1.701318E-03
        32   3  2.663279E-03
        32   4  2.495570E-03
        32   5  6.176079E-04
        32   6  1.530720E-03
        32   7  5.179249E-04
        32   8  1.388756E-03

                        S T E P       2


                                INCREMENT     1


 displacements (vx,vy,vz) for set N1 and time  0.2000000E-05

       100 -1.284465E-10  8.843450E-02 -5.878505E-04

 internal energy density (elem, integ.pnt.,energy) for set EALL and time  0.2000000E-05

         1   1  4.648297E-01
         1   2  4.388862E-01
         1   3  3.335271E-02
         1   4  3.068146E-02
         1   5  4.638429E-01
         1   6  4.939915E-01
         1   7  3.720895E-02
         1   8  3.889978E-02
         2   1  4.388861E-01
         2   2  4.648291E-01
         2   3  3.068142E-02
         2   4  3.335254E-02
         2   5  4.939916E-01
         2   6  4.638431E-01
         2   7  3.889979E-02
         2   8  3.720900E-02
         3   1  3.374983E-02
         3   2  3.108162E-02
         3   3  4.651897E-01
         3   4  4.393267E-01
         3   5  3.734196E-02
         3   6  3.915892E-02
         3   7  4.642560E-01
         3   8  4.949513E-01
         4   1  3.108166E-02
         4   2  3.375000E-02
         4   3  4.393268E-01
         4   4  4.651902E-01
         4   5  3.915888E-02
         4   6  3.734183E-02
         4   7  4.949513E-01
         4   8  4.642560E-01
         5   1  4.013271E-01
         5   2  3.892880E-01
         5   3  3.101417E-02
         5   4  3.014324E-02
         5   5  3.373693E-01
         5   6  3.413579E-01
         5   7  2.738612E-02
         5   8  2.726065E-02
         6   1  3.892880E-01
         6   2  4.013272E-01
         6   3  3.014326E-02
         6   4  3.101424E-02
         6   5  3.413580E-01
         6   6  3.373695E-01
         6   7  2.726065E-02
         6   8  2.738614E-02
         7   1  3.128065E-02
         7   2  3.048846E-02
         7   3  4.012288E-01
         7   4  3.894033E-01
         7   5  2.747238E-02
         7   6  2.741359E-02
         7   7  3.372574E-01
         7   8  3.414920E-01
         8   1  3.048847E-02
         8   2  3.128064E-02
         8   3  3.894033E-01
         8   4  4.012287E-01
         8   5  2.741357E-02
         8   6  2.747229E-02
         8   7  3.414919E-01
         8   8  3.372571E-01
         9   1  2.858913E-01
         9   2  2.841044E-01
         9   3  2.258202E-02
         9   4  2.190003E-02
         9   5  2.355570E-01
         9   6  2.357235E-01
         9   7  1.955847E-02
         9   8  1.892111E-02
        10   1  2.841044E-01
        10   2  2.858915E-01
        10   3  2.190005E-02
        10   4  2.258209E-02
        10   5  2.357235E-01
        10   6  2.355570E-01
        10   7  1.892111E-02
        10   8  1.955844E-02
        11   1  2.264455E-02
        11   2  2.200656E-02
        11   3  2.855936E-01
        11   4  2.839750E-01
        11   5  1.955459E-02
        11   6  1.895372E-02
        11   7  2.352472E-01
        11   8  2.355482E-01
        12   1  2.200655E-02
        12   2  2.264454E-02
        12   3  2.839750E-01
        12   4  2.855935E-01
        12   5  1.895372E-02
        12   6  1.955459E-02
        12   7  2.355482E-01
        12   8  2.352471E-01
        13   1  1.975647E-01
        13   2  1.971998E-01
        13   3  1.631348E-02
        13   4  1.578125E-02
        13   5  1.542742E-01
        13   6  1.540951E-01
        13   7  1.335462E-02
        13   8  1.281387E-02
        14   1  1.971998E-01
        14   2  1.975647E-01
        14   3  1.578125E-02
        14   4  1.631349E-02
        14   5  1.540951E-01
        14   6  1.542742E-01
        14   7  1.281387E-02
        14   8  1.335460E-02
        15   1  1.627465E-02
        15   2  1.577141E-02
        15   3  1.971710E-01
        15   4  1.969139E-01
        15   5  1.328804E-02
        15   6  1.276877E-02
        15   7  1.538674E-01
        15   8  1.537612E-01
        16   1  1.577141E-02
        16   2  1.627466E-02
        16   3  1.969139E-01
        16   4  1.971711E-01
        16   5  1.276877E-02
        16   6  1.328806E-02
        16   7  1.537613E-01
        16   8  1.538675E-01
        17   1  1.249584E-01
        17   2  1.248300E-01
        17   3  1.116730E-02
        17   4  1.063924E-02
        17   5  9.268547E-02
        17   6  9.247828E-02
        17   7  8.658223E-03
        17   8  8.200478E-03
        18   1  1.248300E-01
        18   2  1.249583E-01
        18   3  1.063924E-02
        18   4  1.116729E-02
        18   5  9.247827E-02
        18   6  9.268545E-02
        18   7  8.200475E-03
        18   8  8.658213E-03
        19   1  1.108640E-02
        19   2  1.057051E-02
        19   3  1.245229E-01
        19   4  1.244472E-01
        19   5  8.565735E-03
        19   6  8.118369E-03
        19   7  9.226471E-02
        19   8  9.208731E-02
        20   1  1.057051E-02
        20   2  1.108641E-02
        20   3  1.244472E-01
        20   4  1.245230E-01
        20   5  8.118371E-03
        20   6  8.565742E-03
        20   7  9.208732E-02
        20   8  9.226473E-02
        21   1  7.160333E-02
        21   2  7.157798E-02
        21   3  7.131458E-03
        21   4  6.628219E-03
        21   5  5.006928E-02
        21   6  4.972004E-02
        21   7  5.302486E-03
        21   8  4.912597E-03
        22   1  7.157797E-02
        22   2  7.160332E-02
        22   3  6.628218E-03
        22   4  7.131454E-03
        22   5  4.972004E-02
        22   6  5.006927E-02
        22   7  4.912597E-03
        22   8  5.302484E-03
        23   1  7.037089E-03
        23   2  6.538476E-03
        23   3  7.118727E-02
        23   4  7.119010E-02
        23   5  5.197493E-03
        23   6  4.818293E-03
        23   7  4.968610E-02
        23   8  4.934443E-02
        24   1  6.538476E-03
        24   2  7.037088E-03
        24   3  7.119011E-02
        24   4  7.118728E-02
        24   5  4.818293E-03
        24   6  5.197495E-03
        24   7  4.934443E-02
        24   8  4.968610E-02
        25   1  3.558033E-02
        25   2  3.555381E-02
        25   3  4.673612E-03
        25   4  4.162599E-03
        25   5  2.246845E-02
        25   6  2.230785E-02
        25   7  3.232428E-03
        25   8  2.816366E-03
        26   1  3.555381E-02
        26   2  3.558033E-02
        26   3  4.162598E-03
        26   4  4.673609E-03
        26   5  2.230785E-02
        26   6  2.246845E-02
        26   7  2.816367E-03
        26   8  3.232431E-03
        27   1  4.585219E-03
        27   2  4.071875E-03
        27   3  3.521242E-02
        27   4  3.520488E-02
        27   5  3.161711E-03
        27   6  2.734061E-03
        27   7  2.211629E-02
        27   8  2.196694E-02
        28   1  4.071875E-03
        28   2  4.585216E-03
        28   3  3.520488E-02
        28   4  3.521242E-02
        28   5  2.734061E-03
        28   6  3.161711E-03
        28   7  2.196694E-02
        28   8  2.211630E-02
        29   1  1.057366E-02
        29   2  1.150384E-02
        29   3  5.202693E-03
        29   4  3.820327E-03
        29   5  8.023987E-03
        29   6  3.106511E-03
        29   7  8.763500E-03
        29   8  3.314775E-03
        30   1  1.150384E-02
        30   2  1.057366E-02
        30   3  3.820327E-03
        30   4  5.202694E-03
        30   5  3.106511E-03
        30   6  8.023986E-03
        30   7  3.314775E-03
        30   8  8.763499E-03
        31   1  5.166237E-03
        31   2  3.789885E-03
        31   3  1.035328E-02
        31   4  1.130111E-02
        31   5  8.611383E-03
        31   6  3.285578E-03
        31   7  7.844631E-03
        31   8  3.075310E-03
        32   1  3.789884E-03
        32   2  5.166236E-03
        32   3  1.130111E-02
        32   4  1.035327E-02
        32   5  3.285578E-03
        32   6  8.611382E-03
        32   7  3.075310E-03
        32   8  7.844632E-03

                                INCREMENT     2


 displacements (vx,vy,vz) for set N1 and time  0.3000000E-05

       100 -4.058627E-10  9.035087E-02 -6.164570E-04

 internal energy density (elem, integ.pnt.,energy) for set EALL and time  0.3000000E-05

         1   1  4.699610E-01
         1   2  4.443487E-01
         1   3  3.486559E-02
         1   4  3.165864E-02
         1   5  4.585469E-01
         1   6  4.884768E-01
         1   7  3.727953E-02
         1   8  3.856332E-02
         2   1  4.443486E-01
         2   2  4.699604E-01
         2   3  3.165862E-02
         2   4  3.486550E-02
         2   5  4.884768E-01
         2   6  4.585466E-01
         2   7  3.856331E-02
         2   8  3.727946E-02
         3   1  3.513928E-02
         3   2  3.193728E-02
         3   3  4.698387E-01
         3   4  4.443448E-01
         3   5  3.727641E-02
         3   6  3.868331E-02
         3   7  4.584591E-01
         3   8  4.889090E-01
         4   1  3.193731E-02
         4   2  3.513938E-02
         4   3  4.443449E-01
         4   4  4.698392E-01
         4   5  3.868334E-02
         4   6  3.727655E-02
         4   7  4.889091E-01
         4   8  4.584593E-01
         5   1  3.953335E-01
         5   2  3.799567E-01
         5   3  3.011149E-02
         5   4  2.898954E-02
         5   5  3.354745E-01
         5   6  3.414932E-01
         5   7  2.746176E-02
         5   8  2.747777E-02
         6   1  3.799567E-01
         6   2  3.953337E-01
         6   3  2.898954E-02
         6   4  3.011154E-02
         6   5  3.414933E-01
         6   6  3.354749E-01
         6   7  2.747779E-02
         6   8  2.746188E-02
         7   1  3.026098E-02
         7   2  2.921884E-02
         7   3  3.947720E-01
         7   4  3.796068E-01
         7   5  2.743001E-02
         7   6  2.750884E-02
         7   7  3.349607E-01
         7   8  3.412218E-01
         8   1  2.921883E-02
         8   2  3.026091E-02
         8   3  3.796068E-01
         8   4  3.947717E-01
         8   5  2.750884E-02
         8   6  2.742997E-02
         8   7  3.412217E-01
         8   8  3.349605E-01
         9   1  2.837306E-01
         9   2  2.807984E-01
         9   3  2.217283E-02
         9   4  2.147143E-02
         9   5  2.358162E-01
         9   6  2.362901E-01
         9   7  1.964680E-02
         9   8  1.906079E-02
        10   1  2.807984E-01
        10   2  2.837309E-01
        10   3  2.147145E-02
        10   4  2.217289E-02
        10   5  2.362902E-01
        10   6  2.358164E-01
        10   7  1.906081E-02
        10   8  1.964688E-02
        11   1  2.212987E-02
        11   2  2.147443E-02
        11   3  2.830318E-01
        11   4  2.802640E-01
        11   5  1.954231E-02
        11   6  1.899026E-02
        11   7  2.351405E-01
        11   8  2.357440E-01
        12   1  2.147441E-02
        12   2  2.212978E-02
        12   3  2.802640E-01
        12   4  2.830314E-01
        12   5  1.899025E-02
        12   6  1.954226E-02
        12   7  2.357440E-01
        12   8  2.351403E-01
        13   1  1.988125E-01
        13   2  1.982357E-01
        13   3  1.608595E-02
        13   4  1.561134E-02
        13   5  1.600267E-01
        13   6  1.597746E-01
        13   7  1.343292E-02
        13   8  1.297675E-02
        14   1  1.982357E-01
        14   2  1.988126E-01
        14   3  1.561134E-02
        14   4  1.608597E-02
        14   5  1.597746E-01
        14   6  1.600267E-01
        14   7  1.297676E-02
        14   8  1.343292E-02
        15   1  1.595615E-02
        15   2  1.551223E-02
        15   3  1.980665E-01
        15   4  1.976009E-01
        15   5  1.328249E-02
        15   6  1.284794E-02
        15   7  1.593033E-01
        15   8  1.591247E-01
        16   1  1.551222E-02
        16   2  1.595613E-02
        16   3  1.976009E-01
        16   4  1.980664E-01
        16   5  1.284794E-02
        16   6  1.328249E-02
        16   7  1.591247E-01
        16   8  1.593034E-01
        17   1  1.342314E-01
        17   2  1.340694E-01
        17   3  1.129673E-02
        17   4  1.089327E-02
        17   5  1.077759E-01
        17   6  1.075257E-01
        17   7  9.252046E-03
        17   8  8.916344E-03
        18   1  1.340694E-01
        18   2  1.342313E-01
        18   3  1.089327E-02
        18   4  1.129672E-02
        18   5  1.075257E-01
        18   6  1.077759E-01
        18   7  8.916340E-03
        18   8  9.252031E-03
        19   1  1.114043E-02
        19   2  1.075065E-02
        19   3  1.334945E-01
        19   4  1.333937E-01
        19   5  9.088809E-03
        19   6  8.766529E-03
        19   7  1.070825E-01
        19   8  1.068651E-01
        20   1  1.075066E-02
        20   2  1.114044E-02
        20   3  1.333937E-01
        20   4  1.334945E-01
        20   5  8.766533E-03
        20   6  9.088823E-03
        20   7  1.068651E-01
        20   8  1.070826E-01
        21   1  8.999170E-02
        21   2  9.014262E-02
        21   3  7.914263E-03
        21   4  7.546762E-03
        21   5  7.006831E-02
        21   6  6.986790E-02
        21   7  6.524734E-03
        21   8  6.206532E-03
        22   1  9.014260E-02
        22   2  8.999165E-02
        22   3  7.546758E-03
        22   4  7.914246E-03
        22   5  6.986789E-02
        22   6  7.006827E-02
        22   7  6.206529E-03
        22   8  6.524723E-03
        23   1  7.759453E-03
        23   2  7.397745E-03
        23   3  8.931389E-02
        23   4  8.950762E-02
        23   5  6.364721E-03
        23   6  6.061060E-03
        23   7  6.946266E-02
        23   8  6.927429E-02
        24   1  7.397749E-03
        24   2  7.759469E-03
        24   3  8.950763E-02
        24   4  8.931394E-02
        24   5  6.061062E-03
        24   6  6.364729E-03
        24   7  6.927430E-02
        24   8  6.946270E-02
        25   1  5.251155E-02
        25   2  5.280434E-02
        25   3  6.380641E-03
        25   4  5.695759E-03
        25   5  3.194772E-02
        25   6  3.136022E-02
        25   7  4.963708E-03
        25   8  4.331199E-03
        26   1  5.280434E-02
        26   2  5.251153E-02
        26   3  5.695758E-03
        26   4  6.380636E-03
        26   5  3.136022E-02
        26   6  3.194771E-02
        26   7  4.331197E-03
        26   8  4.963702E-03
        27   1  6.252027E-03
        27   2  5.564385E-03
        27   3  5.195530E-02
        27   4  5.228592E-02
        27   5  4.874958E-03
        27   6  4.225710E-03
        27   7  3.148651E-02
        27   8  3.091578E-02
        28   1  5.564387E-03
        28   2  6.252035E-03
        28   3  5.228593E-02
        28   4  5.195533E-02
        28   5  4.225710E-03
        28   6  4.874957E-03
        28   7  3.091578E-02
        28   8  3.148652E-02
        29   1  1.209558E-02
        29   2  1.299607E-02
        29   3  7.572883E-03
        29   4  5.651791E-03
        29   5  6.566200E-03
        29   6  2.401759E-03
        29   7  6.762141E-03
        29   8  2.725794E-03
        30   1  1.299607E-02
        30   2  1.209558E-02
        30   3  5.651791E-03
        30   4  7.572882E-03
        30   5  2.401759E-03
        30   6  6.566201E-03
        30   7  2.725794E-03
        30   8  6.762141E-03
        31   1  7.532875E-03
        31   2  5.619357E-03
        31   3  1.188587E-02
        31   4  1.279661E-02
        31   5  6.625665E-03
        31   6  2.697218E-03
        31   7  6.415584E-03
        31   8  2.384671E-03
        32   1  5.619357E-03
        32   2  7.532876E-03
        32   3  1.279661E-02
        32   4  1.188587E-02
        32   5  2.697218E-03
        32   6  6.625665E-03
        32   7  2.384671E-03
        32   8  6.415583E-03

                                INCREMENT     3


 displacements (vx,vy,vz) for set N1 and time  0.4000000E-05

       100 -1.243122E-09  9.269949E-02 -6.552573E-04

 internal energy density (elem, integ.pnt.,energy) for set EALL and time  0.4000000E-05

         1   1  4.598339E-01
         1   2  4.346928E-01
         1   3  3.329075E-02
         1   4  3.070270E-02
         1   5  4.517857E-01
         1   6  4.812478E-01
         1   7  3.673063E-02
         1   8  3.825022E-02
         2   1  4.346928E-01
         2   2  4.598337E-01
         2   3  3.070269E-02
         2   4  3.329070E-02
         2   5  4.812478E-01
         2   6  4.517855E-01
         2   7  3.825020E-02
         2   8  3.673056E-02
         3   1  3.338645E-02
         3   2  3.082218E-02
         3   3  4.589825E-01
         3   4  4.340082E-01
         3   5  3.652407E-02
         3   6  3.814130E-02
         3   7  4.509701E-01
         3   8  4.808665E-01
         4   1  3.082219E-02
         4   2  3.338650E-02
         4   3  4.340082E-01
         4   4  4.589826E-01
         4   5  3.814131E-02
         4   6  3.652410E-02
         4   7  4.808666E-01
         4   8  4.509704E-01
         5   1  3.889912E-01
         5   2  3.759962E-01
         5   3  3.009348E-02
         5   4  2.913048E-02
         5   5  3.301412E-01
         5   6  3.344917E-01
         5   7  2.665917E-02
         5   8  2.663870E-02
         6   1  3.759961E-01
         6   2  3.889909E-01
         6   3  2.913046E-02
         6   4  3.009339E-02
         6   5  3.344917E-01
         6   6  3.301410E-01
         6   7  2.663869E-02
         6   8  2.665912E-02
         7   1  3.005519E-02
         7   2  2.917489E-02
         7   3  3.877722E-01
         7   4  3.750079E-01
         7   5  2.647566E-02
         7   6  2.651421E-02
         7   7  3.290530E-01
         7   8  3.336275E-01
         8   1  2.917492E-02
         8   2  3.005531E-02
         8   3  3.750080E-01
         8   4  3.877726E-01
         8   5  2.651421E-02
         8   6  2.647567E-02
         8   7  3.336275E-01
         8   8  3.290531E-01
         9   1  2.840775E-01
         9   2  2.818177E-01
         9   3  2.196458E-02
         9   4  2.139387E-02
         9   5  2.440188E-01
         9   6  2.442022E-01
         9   7  1.952745E-02
         9   8  1.907761E-02
        10   1  2.818177E-01
        10   2  2.840776E-01
        10   3  2.139388E-02
        10   4  2.196462E-02
        10   5  2.442023E-01
        10   6  2.440191E-01
        10   7  1.907762E-02
        10   8  1.952751E-02
        11   1  2.179208E-02
        11   2  2.126644E-02
        11   3  2.829057E-01
        11   4  2.808156E-01
        11   5  1.932504E-02
        11   6  1.891231E-02
        11   7  2.429569E-01
        11   8  2.432770E-01
        12   1  2.126644E-02
        12   2  2.179205E-02
        12   3  2.808156E-01
        12   4  2.829056E-01
        12   5  1.891230E-02
        12   6  1.932497E-02
        12   7  2.432769E-01
        12   8  2.429566E-01
        13   1  2.144934E-01
        13   2  2.139859E-01
        13   3  1.672782E-02
        13   4  1.638645E-02
        13   5  1.836936E-01
        13   6  1.835434E-01
        13   7  1.465823E-02
        13   8  1.431979E-02
        14   1  2.139860E-01
        14   2  2.144938E-01
        14   3  1.638647E-02
        14   4  1.672792E-02
        14   5  1.835435E-01
        14   6  1.836938E-01
        14   7  1.431981E-02
        14   8  1.465829E-02
        15   1  1.652168E-02
        15   2  1.621286E-02
        15   3  2.134335E-01
        15   4  2.130475E-01
        15   5  1.445635E-02
        15   6  1.414505E-02
        15   7  1.827308E-01
        15   8  1.826739E-01
        16   1  1.621284E-02
        16   2  1.652159E-02
        16   3  2.130475E-01
        16   4  2.134332E-01
        16   5  1.414504E-02
        16   6  1.445628E-02
        16   7  1.826738E-01
        16   8  1.827305E-01
        17   1  1.624965E-01
        17   2  1.625410E-01
        17   3  1.296030E-02
        17   4  1.265141E-02
        17   5  1.358589E-01
        17   6  1.359650E-01
        17   7  1.125117E-02
        17   8  1.092884E-02
        18   1  1.625411E-01
        18   2  1.624967E-01
        18   3  1.265142E-02
        18   4  1.296034E-02
        18   5  1.359650E-01
        18   6  1.358590E-01
        18   7  1.092884E-02
        18   8  1.125118E-02
        19   1  1.276831E-02
        19   2  1.247839E-02
        19   3  1.615783E-01
        19   4  1.617054E-01
        19   5  1.107356E-02
        19   6  1.077076E-02
        19   7  1.350640E-01
        19   8  1.352265E-01
        20   1  1.247838E-02
        20   2  1.276826E-02
        20   3  1.617054E-01
        20   4  1.615782E-01
        20   5  1.077076E-02
        20   6  1.107355E-02
        20   7  1.352265E-01
        20   8  1.350640E-01
        21   1  1.129274E-01
        21   2  1.133853E-01
        21   3  1.004055E-02
        21   4  9.558398E-03
        21   5  8.032476E-02
        21   6  8.019725E-02
        21   7  8.683439E-03
        21   8  8.018774E-03
        22   1  1.133853E-01
        22   2  1.129273E-01
        22   3  9.558398E-03
        22   4  1.004055E-02
        22   5  8.019724E-02
        22   6  8.032470E-02
        22   7  8.018771E-03
        22   8  8.683427E-03
        23   1  9.882201E-03
        23   2  9.410759E-03
        23   3  1.122038E-01
        23   4  1.127216E-01
        23   5  8.529468E-03
        23   6  7.884479E-03
        23   7  7.974487E-02
        23   8  7.963895E-02
        24   1  9.410760E-03
        24   2  9.882210E-03
        24   3  1.127216E-01
        24   4  1.122038E-01
        24   5  7.884483E-03
        24   6  8.529489E-03
        24   7  7.963897E-02
        24   8  7.974493E-02
        25   1  5.285974E-02
        25   2  5.293990E-02
        25   3  8.484943E-03
        25   4  7.340084E-03
        25   5  2.680195E-02
        25   6  2.608775E-02
        25   7  5.517337E-03
        25   8  4.636623E-03
        26   1  5.293989E-02
        26   2  5.285970E-02
        26   3  7.340080E-03
        26   4  8.484930E-03
        26   5  2.608774E-02
        26   6  2.680193E-02
        26   7  4.636622E-03
        26   8  5.517334E-03
        27   1  8.371876E-03
        27   2  7.223774E-03
        27   3  5.237038E-02
        27   4  5.248139E-02
        27   5  5.457308E-03
        27   6  4.554090E-03
        27   7  2.641632E-02
        27   8  2.572271E-02
        28   1  7.223777E-03
        28   2  8.371890E-03
        28   3  5.248140E-02
        28   4  5.237043E-02
        28   5  4.554092E-03
        28   6  5.457318E-03
        28   7  2.572272E-02
        28   8  2.641635E-02
        29   1  9.838095E-03
        29   2  1.052417E-02
        29   3  6.645899E-03
        29   4  4.898175E-03