
                        S T E P       1


                                INCREMENT     1


 displacements (vx,vy,vz) for set N1 and time  0.5000000E-06

       100 -1.208702E-07 -1.154729E-07  2.249378E-04

                                INCREMENT     2


 displacements (vx,vy,vz) for set N1 and time  0.1000000E-05

       100 -1.275651E-06 -1.246212E-06  8.668343E-04

                                INCREMENT     3


 displacements (vx,vy,vz) for set N1 and time  0.1500000E-05

       100 -5.223558E-06 -5.326541E-06  1.832250E-03

                                INCREMENT     4


 displacements (vx,vy,vz) for set N1 and time  0.2000000E-05

       100 -1.297903E-05 -1.412198E-05  2.994798E-03

                                INCREMENT     5


 displacements (vx,vy,vz) for set N1 and time  0.2500000E-05

       100 -2.369315E-05 -2.813692E-05  4.225122E-03

                                INCREMENT     6


 displacements (vx,vy,vz) for set N1 and time  0.3000000E-05

       100 -3.552538E-05 -4.684954E-05  5.395762E-03

                                INCREMENT     7


 displacements (vx,vy,vz) for set N1 and time  0.3500000E-05

       100 -4.731203E-05 -6.952577E-05  6.378383E-03

                                INCREMENT     8


 displacements (vx,vy,vz) for set N1 and time  0.4000000E-05

       100 -5.918562E-05 -9.546519E-05  7.054801E-03

                                INCREMENT     9


 displacements (vx,vy,vz) for set N1 and time  0.4500000E-05

       100 -7.155455E-05 -1.233493E-04  7.344732E-03

                                INCREMENT    10


 displacements (vx,vy,vz) for set N1 and time  0.5000000E-05

       100 -8.368842E-05 -1.505361E-04  7.229758E-03
