    1C
    1UModel: beam     Date: 10-Mar-1998                                 
    1UUSER                                                              
    1UDATE              09.september.2016                               
    1UTIME              09:14:19                                        
    1UHOST                                                              
    1UPGM               CalculiX                                        
    1UVERSION           Version DEVELOPMENT                             
    1UCOMPILETIME       Fr 9. Sep 09:04:19 CEST 2016                    
    1UDIR                                                               
    1UDBN                                                               
    1UMAT    1EL                                                        
    2C                            81                                     1
 -1         1 0.00000E+00 0.00000E+00 0.00000E+00
 -1         2 1.00000E+00 0.00000E+00 0.00000E+00
 -1         3 1.00000E+00 1.00000E+00 0.00000E+00
 -1         4 0.00000E+00 1.00000E+00 0.00000E+00
 -1         5 0.00000E+00 0.00000E+00 8.00000E+00
 -1         6 1.00000E+00 0.00000E+00 8.00000E+00
 -1         7 1.00000E+00 1.00000E+00 8.00000E+00
 -1         8 0.00000E+00 1.00000E+00 8.00000E+00
 -1        10 5.00000E-01 0.00000E+00 0.00000E+00
 -1        13 1.00000E+00 5.00000E-01 0.00000E+00
 -1        16 5.00000E-01 1.00000E+00 0.00000E+00
 -1        19 0.00000E+00 5.00000E-01 0.00000E+00
 -1        22 5.00000E-01 0.00000E+00 8.00000E+00
 -1        25 1.00000E+00 5.00000E-01 8.00000E+00
 -1        28 5.00000E-01 1.00000E+00 8.00000E+00
 -1        31 0.00000E+00 5.00000E-01 8.00000E+00
 -1        34 1.00000E+00 0.00000E+00 1.00000E+00
 -1        36 1.00000E+00 0.00000E+00 2.00000E+00
 -1        38 1.00000E+00 0.00000E+00 3.00000E+00
 -1        40 1.00000E+00 0.00000E+00 4.00000E+00
 -1        42 1.00000E+00 0.00000E+00 5.00000E+00
 -1        44 1.00000E+00 0.00000E+00 6.00000E+00
 -1        46 1.00000E+00 0.00000E+00 7.00000E+00
 -1        49 0.00000E+00 0.00000E+00 7.00000E+00
 -1        51 0.00000E+00 0.00000E+00 6.00000E+00
 -1        53 0.00000E+00 0.00000E+00 5.00000E+00
 -1        55 0.00000E+00 0.00000E+00 4.00000E+00
 -1        57 0.00000E+00 0.00000E+00 3.00000E+00
 -1        59 0.00000E+00 0.00000E+00 2.00000E+00
 -1        61 0.00000E+00 0.00000E+00 1.00000E+00
 -1        64 1.00000E+00 1.00000E+00 1.00000E+00
 -1        66 1.00000E+00 1.00000E+00 2.00000E+00
 -1        68 1.00000E+00 1.00000E+00 3.00000E+00
 -1        70 1.00000E+00 1.00000E+00 4.00000E+00
 -1        72 1.00000E+00 1.00000E+00 5.00000E+00
 -1        74 1.00000E+00 1.00000E+00 6.00000E+00
 -1        76 1.00000E+00 1.00000E+00 7.00000E+00
 -1        79 0.00000E+00 1.00000E+00 1.00000E+00
 -1        81 0.00000E+00 1.00000E+00 2.00000E+00
 -1        83 0.00000E+00 1.00000E+00 3.00000E+00
 -1        85 0.00000E+00 1.00000E+00 4.00000E+00
 -1        87 0.00000E+00 1.00000E+00 5.00000E+00
 -1        89 0.00000E+00 1.00000E+00 6.00000E+00
 -1        91 0.00000E+00 1.00000E+00 7.00000E+00
 -1        95 5.00000E-01 5.00000E-01 0.00000E+00
 -1       100 5.00000E-01 5.00000E-01 8.00000E+00
 -1       105 5.00000E-01 0.00000E+00 1.00000E+00
 -1       109 5.00000E-01 0.00000E+00 2.00000E+00
 -1       113 5.00000E-01 0.00000E+00 3.00000E+00
 -1       117 5.00000E-01 0.00000E+00 4.00000E+00
 -1       121 5.00000E-01 0.00000E+00 5.00000E+00
 -1       125 5.00000E-01 0.00000E+00 6.00000E+00
 -1       129 5.00000E-01 0.00000E+00 7.00000E+00
 -1       134 1.00000E+00 5.00000E-01 1.00000E+00
 -1       138 1.00000E+00 5.00000E-01 2.00000E+00
 -1       142 1.00000E+00 5.00000E-01 3.00000E+00
 -1       146 1.00000E+00 5.00000E-01 4.00000E+00
 -1       150 1.00000E+00 5.00000E-01 5.00000E+00
 -1       154 1.00000E+00 5.00000E-01 6.00000E+00
 -1       158 1.00000E+00 5.00000E-01 7.00000E+00
 -1       163 5.00000E-01 1.00000E+00 1.00000E+00
 -1       167 5.00000E-01 1.00000E+00 2.00000E+00
 -1       171 5.00000E-01 1.00000E+00 3.00000E+00
 -1       175 5.00000E-01 1.00000E+00 4.00000E+00
 -1       179 5.00000E-01 1.00000E+00 5.00000E+00
 -1       183 5.00000E-01 1.00000E+00 6.00000E+00
 -1       187 5.00000E-01 1.00000E+00 7.00000E+00
 -1       192 0.00000E+00 5.00000E-01 1.00000E+00
 -1       196 0.00000E+00 5.00000E-01 2.00000E+00
 -1       200 0.00000E+00 5.00000E-01 3.00000E+00
 -1       204 0.00000E+00 5.00000E-01 4.00000E+00
 -1       208 0.00000E+00 5.00000E-01 5.00000E+00
 -1       212 0.00000E+00 5.00000E-01 6.00000E+00
 -1       216 0.00000E+00 5.00000E-01 7.00000E+00
 -1       222 5.00000E-01 5.00000E-01 1.00000E+00
 -1       228 5.00000E-01 5.00000E-01 2.00000E+00
 -1       234 5.00000E-01 5.00000E-01 3.00000E+00
 -1       240 5.00000E-01 5.00000E-01 4.00000E+00
 -1       246 5.00000E-01 5.00000E-01 5.00000E+00
 -1       252 5.00000E-01 5.00000E-01 6.00000E+00
 -1       258 5.00000E-01 5.00000E-01 7.00000E+00
 -3
    3C                            32                                     1
 -1         1    1    0    1
 -2         1        10        95        19        61       105       222       192
 -1         2    1    0    1
 -2        10         2        13        95       105        34       134       222
 -1         3    1    0    1
 -2        19        95        16         4       192       222       163        79
 -1         4    1    0    1
 -2        95        13         3        16       222       134        64       163
 -1         5    1    0    1
 -2        61       105       222       192        59       109       228       196
 -1         6    1    0    1
 -2       105        34       134       222       109        36       138       228
 -1         7    1    0    1
 -2       192       222       163        79       196       228       167        81
 -1         8    1    0    1
 -2       222       134        64       163       228       138        66       167
 -1         9    1    0    1
 -2        59       109       228       196        57       113       234       200
 -1        10    1    0    1
 -2       109        36       138       228       113        38       142       234
 -1        11    1    0    1
 -2       196       228       167        81       200       234       171        83
 -1        12    1    0    1
 -2       228       138        66       167       234       142        68       171
 -1        13    1    0    1
 -2        57       113       234       200        55       117       240       204
 -1        14    1    0    1
 -2       113        38       142       234       117        40       146       240
 -1        15    1    0    1
 -2       200       234       171        83       204       240       175        85
 -1        16    1    0    1
 -2       234       142        68       171       240       146        70       175
 -1        17    1    0    1
 -2        55       117       240       204        53       121       246       208
 -1        18    1    0    1
 -2       117        40       146       240       121        42       150       246
 -1        19    1    0    1
 -2       204       240       175        85       208       246       179        87
 -1        20    1    0    1
 -2       240       146        70       175       246       150        72       179
 -1        21    1    0    1
 -2        53       121       246       208        51       125       252       212
 -1        22    1    0    1
 -2       121        42       150       246       125        44       154       252
 -1        23    1    0    1
 -2       208       246       179        87       212       252       183        89
 -1        24    1    0    1
 -2       246       150        72       179       252       154        74       183
 -1        25    1    0    1
 -2        51       125       252       212        49       129       258       216
 -1        26    1    0    1
 -2       125        44       154       252       129        46       158       258
 -1        27    1    0    1
 -2       212       252       183        89       216       258       187        91
 -1        28    1    0    1
 -2       252       154        74       183       258       158        76       187
 -1        29    1    0    1
 -2        49       129       258       216         5        22       100        31
 -1        30    1    0    1
 -2       129        46       158       258        22         6        25       100
 -1        31    1    0    1
 -2       216       258       187        91        31       100        28         8
 -1        32    1    0    1
 -2       258       158        76       187       100        25         7        28
 -3
    1PSTEP                         1           1           1          
  100CL  101 1.000000000          81                     0    1           1
 -4  DISP        4    1
 -5  D1          1    2    1    0
 -5  D2          1    2    2    0
 -5  D3          1    2    3    0
 -5  ALL         1    2    0    0    1ALL
 -1         1 0.00000E+00 0.00000E+00 0.00000E+00
 -1         2 0.00000E+00 0.00000E+00 0.00000E+00
 -1         3 0.00000E+00 0.00000E+00 0.00000E+00
 -1         4 0.00000E+00 0.00000E+00 0.00000E+00
 -1         5 3.95069E-02 3.95069E-02 3.69317E+00
 -1         6-3.95069E-02 3.95069E-02 3.69317E+00
 -1         7-3.95069E-02-3.95069E-02 3.69317E+00
 -1         8 3.95069E-02-3.95069E-02 3.69317E+00
 -1        10 0.00000E+00 0.00000E+00 0.00000E+00
 -1        13 0.00000E+00 0.00000E+00 0.00000E+00
 -1        16 0.00000E+00 0.00000E+00 0.00000E+00
 -1        19 0.00000E+00 0.00000E+00 0.00000E+00
 -1        22 3.43947E-13 2.34086E-02 3.42371E+00
 -1        25-2.34086E-02 7.64839E-13 3.42371E+00
 -1        28 3.96182E-13-2.34086E-02 3.42371E+00
 -1        31 2.34086E-02 8.17276E-13 3.42371E+00
 -1        34-8.24414E-02 8.24414E-02 4.35572E-01
 -1        36-6.99543E-02 6.99543E-02 9.05998E-01
 -1        38-7.14760E-02 7.14760E-02 1.38474E+00
 -1        40-7.20135E-02 7.20135E-02 1.86080E+00
 -1        42-6.94768E-02 6.94768E-02 2.33478E+00
 -1        44-7.57606E-02 7.57606E-02 2.81912E+00
 -1        46-6.97539E-02 6.97539E-02 3.28253E+00
 -1        49 6.97539E-02 6.97539E-02 3.28253E+00
 -1        51 7.57606E-02 7.57606E-02 2.81912E+00
 -1        53 6.94768E-02 6.94768E-02 2.33478E+00
 -1        55 7.20135E-02 7.20135E-02 1.86080E+00
 -1        57 7.14760E-02 7.14760E-02 1.38474E+00
 -1        59 6.99543E-02 6.99543E-02 9.05998E-01
 -1        61 8.24414E-02 8.24414E-02 4.35572E-01
 -1        64-8.24414E-02-8.24414E-02 4.35572E-01
 -1        66-6.99543E-02-6.99543E-02 9.05998E-01
 -1        68-7.14760E-02-7.14760E-02 1.38474E+00
 -1        70-7.20135E-02-7.20135E-02 1.86080E+00
 -1        72-6.94768E-02-6.94768E-02 2.33478E+00
 -1        74-7.57606E-02-7.57606E-02 2.81912E+00
 -1        76-6.97539E-02-6.97539E-02 3.28253E+00
 -1        79 8.24414E-02-8.24414E-02 4.35572E-01
 -1        81 6.99543E-02-6.99543E-02 9.05998E-01
 -1        83 7.14760E-02-7.14760E-02 1.38474E+00
 -1        85 7.20135E-02-7.20135E-02 1.86080E+00
 -1        87 6.94768E-02-6.94768E-02 2.33478E+00
 -1        89 7.57606E-02-7.57606E-02 2.81912E+00
 -1        91 6.97539E-02-6.97539E-02 3.28253E+00
 -1        95 0.00000E+00 0.00000E+00 0.00000E+00
 -1       100 3.70072E-13 7.91128E-13 4.52043E+00
 -1       105 6.55857E-15 8.24653E-02 4.24438E-01
 -1       109 3.22659E-14 7.05300E-02 9.09050E-01
 -1       113 7.16306E-14 7.14394E-02 1.38414E+00
 -1       117 1.19960E-13 7.07662E-02 1.86054E+00
 -1       121 1.70839E-13 7.51077E-02 2.33808E+00
 -1       125 2.24730E-13 5.54595E-02 2.80025E+00
 -1       129 2.82691E-13 1.23106E-01 3.36379E+00
 -1       134-8.24653E-02 1.90328E-14 4.24438E-01
 -1       138-7.05300E-02 8.11642E-14 9.09050E-01
 -1       142-7.14394E-02 1.72933E-13 1.38414E+00
 -1       146-7.07662E-02 2.82939E-13 1.86054E+00
 -1       150-7.51077E-02 4.01942E-13 2.33808E+00
 -1       154-5.54595E-02 5.23722E-13 2.80025E+00
 -1       158-1.23106E-01 6.44452E-13 3.36379E+00
 -1       163 1.52265E-14-8.24653E-02 4.24438E-01
 -1       167 4.96101E-14-7.05300E-02 9.09050E-01
 -1       171 9.75053E-14-7.14394E-02 1.38414E+00
 -1       175 1.54043E-13-7.07662E-02 1.86054E+00
 -1       179 2.12644E-13-7.51077E-02 2.33808E+00
 -1       183 2.71472E-13-5.54595E-02 2.80025E+00
 -1       187 3.33362E-13-1.23106E-01 3.36379E+00
 -1       192 8.24653E-02 2.77833E-14 4.24438E-01
 -1       196 7.05300E-02 9.84317E-14 9.09050E-01
 -1       200 7.14394E-02 1.98994E-13 1.38414E+00
 -1       204 7.07662E-02 3.16802E-13 1.86054E+00
 -1       208 7.51077E-02 4.43895E-13 2.33808E+00
 -1       212 5.54595E-02 5.70505E-13 2.80025E+00
 -1       216 1.23106E-01 6.94961E-13 3.36379E+00
 -1       222 1.17300E-14 2.52798E-14 4.13215E-01
 -1       228 4.14692E-14 9.09395E-14 9.12058E-01
 -1       234 8.48823E-14 1.86628E-13 1.38394E+00
 -1       240 1.36994E-13 3.00392E-13 1.85979E+00
 -1       246 1.91710E-13 4.22824E-13 2.33834E+00
 -1       252 2.48211E-13 5.47173E-13 2.81743E+00
 -1       258 3.08147E-13 6.69707E-13 3.19746E+00
 -3
    1PSTEP                         2           1           2          
    1PGM                1.000000E+00                                  
    1PGK                5.454937E+11                                  
    1PHID                         -1                                  
    1PSUBC                         0                                  
    1PMODE                         1                                  
  100CL  102 1.17548E+05          81                     2    2MODAL      1
 -4  DISP        4    1
 -5  D1          1    2    1    0
 -5  D2          1    2    2    0
 -5  D3          1    2    3    0
 -5  ALL         1    2    0    0    1ALL
 -1         1 0.00000E+00 0.00000E+00 0.00000E+00
 -1         2 0.00000E+00 0.00000E+00 0.00000E+00
 -1         3 0.00000E+00 0.00000E+00 0.00000E+00
 -1         4 0.00000E+00 0.00000E+00 0.00000E+00
 -1         5-1.16213E+03 5.74678E+03 1.00912E+01
 -1         6-1.07170E+03 5.72918E+03 1.49693E+01
 -1         7-1.16213E+03 5.74678E+03-1.00912E+01
 -1         8-1.07170E+03 5.72918E+03-1.49693E+01
 -1        10 0.00000E+00 0.00000E+00 0.00000E+00
 -1        13 0.00000E+00 0.00000E+00 0.00000E+00
 -1        16 0.00000E+00 0.00000E+00 0.00000E+00
 -1        19 0.00000E+00 0.00000E+00 0.00000E+00
 -1        22-1.12107E+03 5.70221E+03 5.58918E+00
 -1        25-1.10996E+03 5.75931E+03 1.08795E+00
 -1        28-1.12107E+03 5.70221E+03-5.58918E+00
 -1        31-1.10996E+03 5.75931E+03-1.08795E+00
 -1        34-2.22547E+02 8.53306E+02 2.88541E+02
 -1        36-3.70385E+02 1.90240E+03 3.60906E+02
 -1        38-5.66130E+02 2.94878E+03 3.39434E+02
 -1        40-7.42482E+02 3.87431E+03 2.92239E+02
 -1        42-8.88161E+02 4.64065E+03 2.32343E+02
 -1        44-9.99350E+02 5.21117E+03 1.57316E+02
 -1        46-1.06887E+03 5.56919E+03 8.63221E+01
 -1        49-1.10045E+03 5.57534E+03 5.81919E+01
 -1        51-1.03058E+03 5.21725E+03 1.06051E+02
 -1        53-9.19675E+02 4.64679E+03 1.56628E+02
 -1        55-7.66733E+02 3.87903E+03 1.97006E+02
 -1        57-5.82469E+02 2.95196E+03 2.28821E+02
 -1        59-3.70227E+02 1.90237E+03 2.43296E+02
 -1        61-1.05206E+02 8.30465E+02 1.94513E+02
 -1        64-1.05206E+02 8.30465E+02-1.94513E+02
 -1        66-3.70227E+02 1.90237E+03-2.43296E+02
 -1        68-5.82469E+02 2.95196E+03-2.28821E+02
 -1        70-7.66733E+02 3.87903E+03-1.97006E+02
 -1        72-9.19675E+02 4.64679E+03-1.56628E+02
 -1        74-1.03058E+03 5.21725E+03-1.06051E+02
 -1        76-1.10045E+03 5.57534E+03-5.81919E+01
 -1        79-2.22547E+02 8.53306E+02-2.88541E+02
 -1        81-3.70385E+02 1.90240E+03-3.60906E+02
 -1        83-5.66130E+02 2.94878E+03-3.39434E+02
 -1        85-7.42482E+02 3.87431E+03-2.92239E+02
 -1        87-8.88161E+02 4.64065E+03-2.32343E+02
 -1        89-9.99350E+02 5.21117E+03-1.57316E+02
 -1        91-1.06887E+03 5.56919E+03-8.63221E+01
 -1        95 0.00000E+00 0.00000E+00 0.00000E+00
 -1       100-1.10573E+03 5.68048E+03-3.14003E-10
 -1       105-1.56163E+02 8.64274E+02 2.41863E+02
 -1       109-3.71476E+02 1.90613E+03 3.05228E+02
 -1       113-5.74781E+02 2.94568E+03 2.84251E+02
 -1       117-7.55896E+02 3.87119E+03 2.45739E+02
 -1       121-9.05082E+02 4.63476E+03 1.91905E+02
 -1       125-1.01699E+03 5.20825E+03 1.38911E+02
 -1       129-1.08420E+03 5.56082E+03 5.94797E+01
 -1       134-1.68234E+02 8.02260E+02 4.70794E+01
 -1       138-3.71035E+02 1.90839E+03 5.94137E+01
 -1       142-5.73388E+02 2.95284E+03 5.53305E+01
 -1       146-7.53541E+02 3.88328E+03 4.78341E+01
 -1       150-9.02173E+02 4.64970E+03 3.73549E+01
 -1       154-1.01381E+03 5.22460E+03 2.70395E+01
 -1       158-1.08243E+03 5.56991E+03 1.15779E+01
 -1       163-1.56163E+02 8.64274E+02-2.41863E+02
 -1       167-3.71476E+02 1.90613E+03-3.05228E+02
 -1       171-5.74781E+02 2.94568E+03-2.84251E+02
 -1       175-7.55896E+02 3.87119E+03-2.45739E+02
 -1       179-9.05082E+02 4.63476E+03-1.91905E+02
 -1       183-1.01699E+03 5.20825E+03-1.38911E+02
 -1       187-1.08420E+03 5.56082E+03-5.94797E+01
 -1       192-1.68234E+02 8.02260E+02-4.70794E+01
 -1       196-3.71035E+02 1.90839E+03-5.94137E+01
 -1       200-5.73388E+02 2.95284E+03-5.53305E+01
 -1       204-7.53541E+02 3.88328E+03-4.78341E+01
 -1       208-9.02173E+02 4.64970E+03-3.73549E+01
 -1       212-1.01381E+03 5.22460E+03-2.70395E+01
 -1       216-1.08243E+03 5.56991E+03-1.15779E+01
 -1       222-1.60548E+02 8.24786E+02-2.28333E-11
 -1       228-3.72168E+02 1.91195E+03-6.91003E-11
 -1       234-5.74052E+02 2.94909E+03-1.29518E-10
 -1       240-7.54487E+02 3.87604E+03-1.90767E-10
 -1       246-9.04253E+02 4.64544E+03-2.44540E-10
 -1       252-1.01378E+03 5.20813E+03-2.83649E-10
 -1       258-1.08775E+03 5.58811E+03-3.10138E-10
 -3
    1PSTEP                         3           1           2          
    1PGM                1.000000E+00                                  
    1PGK                5.454937E+11                                  
    1PHID                         -1                                  
    1PSUBC                         0                                  
    1PMODE                         2                                  
  100CL  103 1.17548E+05          81                     2    3MODAL      1
 -4  DISP        4    1
 -5  D1          1    2    1    0
 -5  D2          1    2    2    0
 -5  D3          1    2    3    0
 -5  ALL         1    2    0    0    1ALL
 -1         1 0.00000E+00 0.00000E+00 0.00000E+00
 -1         2 0.00000E+00 0.00000E+00 0.00000E+00
 -1         3 0.00000E+00 0.00000E+00 0.00000E+00
 -1         4 0.00000E+00 0.00000E+00 0.00000E+00
 -1         5 5.72918E+03 1.07170E+03 1.49693E+01
 -1         6 5.74678E+03 1.16213E+03-1.00912E+01
 -1         7 5.72918E+03 1.07170E+03-1.49693E+01
 -1         8 5.74678E+03 1.16213E+03 1.00912E+01
 -1        10 0.00000E+00 0.00000E+00 0.00000E+00
 -1        13 0.00000E+00 0.00000E+00 0.00000E+00
 -1        16 0.00000E+00 0.00000E+00 0.00000E+00
 -1        19 0.00000E+00 0.00000E+00 0.00000E+00
 -1        22 5.75931E+03 1.10996E+03 1.08795E+00
 -1        25 5.70221E+03 1.12107E+03-5.58918E+00
 -1        28 5.75931E+03 1.10996E+03-1.08795E+00
 -1        31 5.70221E+03 1.12107E+03 5.58918E+00
 -1        34 8.30465E+02 1.05206E+02-1.94513E+02
 -1        36 1.90237E+03 3.70227E+02-2.43296E+02
 -1        38 2.95196E+03 5.82469E+02-2.28821E+02
 -1        40 3.87903E+03 7.66733E+02-1.97006E+02
 -1        42 4.64679E+03 9.19675E+02-1.56628E+02
 -1        44 5.21725E+03 1.03058E+03-1.06051E+02
 -1        46 5.57534E+03 1.10045E+03-5.81919E+01
 -1        49 5.56919E+03 1.06887E+03 8.63221E+01
 -1        51 5.21117E+03 9.99350E+02 1.57316E+02
 -1        53 4.64065E+03 8.88161E+02 2.32343E+02
 -1        55 3.87431E+03 7.42482E+02 2.92239E+02
 -1        57 2.94878E+03 5.66130E+02 3.39434E+02
 -1        59 1.90240E+03 3.70385E+02 3.60906E+02
 -1        61 8.53306E+02 2.22547E+02 2.88541E+02
 -1        64 8.53306E+02 2.22547E+02-2.88541E+02
 -1        66 1.90240E+03 3.70385E+02-3.60906E+02
 -1        68 2.94878E+03 5.66130E+02-3.39434E+02
 -1        70 3.87431E+03 7.42482E+02-2.92239E+02
 -1        72 4.64065E+03 8.88161E+02-2.32343E+02
 -1        74 5.21117E+03 9.99350E+02-1.57316E+02
 -1        76 5.56919E+03 1.06887E+03-8.63221E+01
 -1        79 8.30465E+02 1.05206E+02 1.94513E+02
 -1        81 1.90237E+03 3.70227E+02 2.43296E+02
 -1        83 2.95196E+03 5.82469E+02 2.28821E+02
 -1        85 3.87903E+03 7.66733E+02 1.97006E+02
 -1        87 4.64679E+03 9.19675E+02 1.56628E+02
 -1        89 5.21725E+03 1.03058E+03 1.06051E+02
 -1        91 5.57534E+03 1.10045E+03 5.81919E+01
 -1        95 0.00000E+00 0.00000E+00 0.00000E+00
 -1       100 5.68048E+03 1.10573E+03-2.24645E-10
 -1       105 8.02260E+02 1.68234E+02 4.70794E+01
 -1       109 1.90839E+03 3.71035E+02 5.94137E+01
 -1       113 2.95284E+03 5.73388E+02 5.53305E+01
 -1       117 3.88328E+03 7.53541E+02 4.78341E+01
 -1       121 4.64970E+03 9.02173E+02 3.73549E+01
 -1       125 5.22460E+03 1.01381E+03 2.70395E+01
 -1       129 5.56991E+03 1.08243E+03 1.15779E+01
 -1       134 8.64274E+02 1.56163E+02-2.41863E+02
 -1       138 1.90613E+03 3.71476E+02-3.05228E+02
 -1       142 2.94568E+03 5.74781E+02-2.84251E+02
 -1       146 3.87119E+03 7.55896E+02-2.45739E+02
 -1       150 4.63476E+03 9.05082E+02-1.91905E+02
 -1       154 5.20825E+03 1.01699E+03-1.38911E+02
 -1       158 5.56082E+03 1.08420E+03-5.94797E+01
 -1       163 8.02260E+02 1.68234E+02-4.70794E+01
 -1       167 1.90839E+03 3.71035E+02-5.94137E+01
 -1       171 2.95284E+03 5.73388E+02-5.53305E+01
 -1       175 3.88328E+03 7.53541E+02-4.78341E+01
 -1       179 4.64970E+03 9.02173E+02-3.73549E+01
 -1       183 5.22460E+03 1.01381E+03-2.70395E+01
 -1       187 5.56991E+03 1.08243E+03-1.15779E+01
 -1       192 8.64274E+02 1.56163E+02 2.41863E+02
 -1       196 1.90613E+03 3.71476E+02 3.05228E+02
 -1       200 2.94568E+03 5.74781E+02 2.84251E+02
 -1       204 3.87119E+03 7.55896E+02 2.45739E+02
 -1       208 4.63476E+03 9.05082E+02 1.91905E+02
 -1       212 5.20825E+03 1.01699E+03 1.38911E+02
 -1       216 5.56082E+03 1.08420E+03 5.94797E+01
 -1       222 8.24786E+02 1.60548E+02-1.57172E-11
 -1       228 1.91195E+03 3.72168E+02-4.81180E-11
 -1       234 2.94909E+03 5.74052E+02-8.99547E-11
 -1       240 3.87604E+03 7.54487E+02-1.34833E-10
 -1       246 4.64544E+03 9.04253E+02-1.72804E-10
 -1       252 5.20813E+03 1.01378E+03-2.00544E-10
 -1       258 5.58811E+03 1.08775E+03-2.23281E-10
 -3
    1PSTEP                         4           1           2          
    1PGM                1.000000E+00                                  
    1PGK                7.413272E+11                                  
    1PHID                         -1                                  
    1PSUBC                         0                                  
    1PMODE                         3                                  
  100CL  104 1.37033E+05          81                     2    4MODAL      1
 -4  DISP        4    1
 -5  D1          1    2    1    0
 -5  D2          1    2    2    0
 -5  D3          1    2    3    0
 -5  ALL         1    2    0    0    1ALL
 -1         1 0.00000E+00 0.00000E+00 0.00000E+00
 -1         2 0.00000E+00 0.00000E+00 0.00000E+00
 -1         3 0.00000E+00 0.00000E+00 0.00000E+00
 -1         4 0.00000E+00 0.00000E+00 0.00000E+00
 -1         5-7.74965E+03 7.74965E+03-2.21632E-10
 -1         6-7.74965E+03-7.74965E+03 6.65466E-10
 -1         7 7.74965E+03-7.74965E+03 2.13731E-10
 -1         8 7.74965E+03 7.74965E+03-6.71420E-10
 -1        10 0.00000E+00 0.00000E+00 0.00000E+00
 -1        13 0.00000E+00 0.00000E+00 0.00000E+00
 -1        16 0.00000E+00 0.00000E+00 0.00000E+00
 -1        19 0.00000E+00 0.00000E+00 0.00000E+00
 -1        22-8.05540E+03-1.95428E-10 2.31857E-10
 -1        25 3.92873E-10-8.05540E+03 4.64127E-10
 -1        28 8.05540E+03-1.08275E-09-2.41897E-10
 -1        31 1.28012E-09 8.05540E+03-4.73303E-10
 -1        34-1.42382E+03-1.42382E+03 8.62315E-11
 -1        36-2.66877E+03-2.66877E+03 2.33285E-10
 -1        38-3.81085E+03-3.81085E+03 4.07908E-10
 -1        40-4.80968E+03-4.80968E+03 5.63432E-10
 -1        42-5.68510E+03-5.68510E+03 6.83031E-10
 -1        44-6.17751E+03-6.17751E+03 7.21144E-10
 -1        46-7.09332E+03-7.09332E+03 7.12824E-10
 -1        49-7.09332E+03 7.09332E+03-2.50125E-10
 -1        51-6.17751E+03 6.17751E+03-2.69267E-10
 -1        53-5.68510E+03 5.68510E+03-2.70688E-10
 -1        55-4.80968E+03 4.80968E+03-2.25782E-10
 -1        57-3.81085E+03 3.81085E+03-1.65528E-10
 -1        59-2.66877E+03 2.66877E+03-9.91349E-11
 -1        61-1.42382E+03 1.42382E+03-4.18368E-11
 -1        64 1.42382E+03-1.42382E+03 4.17799E-11
 -1        66 2.66877E+03-2.66877E+03 9.98170E-11
 -1        68 3.81085E+03-3.81085E+03 1.65073E-10
 -1        70 4.80968E+03-4.80968E+03 2.23963E-10
 -1        72 5.68510E+03-5.68510E+03 2.67391E-10
 -1        74 6.17751E+03-6.17751E+03 2.66482E-10
 -1        76 7.09332E+03-7.09332E+03 2.44881E-10
 -1        79 1.42382E+03 1.42382E+03-8.73115E-11
 -1        81 2.66877E+03 2.66877E+03-2.33058E-10
 -1        83 3.81085E+03 3.81085E+03-4.07226E-10
 -1        85 4.80968E+03 4.80968E+03-5.63659E-10
 -1        87 5.68510E+03 5.68510E+03-6.84395E-10
 -1        89 6.17751E+03 6.17751E+03-7.24640E-10
 -1        91 7.09332E+03 7.09332E+03-7.19922E-10
 -1        95 0.00000E+00 0.00000E+00 0.00000E+00
 -1       100-2.72664E-10-7.38964E-11-4.88853E-12
 -1       105-1.41623E+03 1.55609E-11 2.29647E-11
 -1       109-2.66881E+03 5.67866E-11 6.70752E-11
 -1       113-3.80884E+03 1.17666E-10 1.23237E-10
 -1       117-4.82531E+03 1.79966E-10 1.69621E-10
 -1       121-5.61047E+03 2.46700E-10 2.04068E-10
 -1       125-6.47550E+03 2.84217E-10 2.38131E-10
 -1       129-6.13105E+03 3.46972E-10 2.00771E-10
 -1       134-7.25322E-11-1.41623E+03 6.58247E-11
 -1       138-1.85082E-10-2.66881E+03 1.66438E-10
 -1       142-3.01725E-10-3.80884E+03 2.86946E-10
 -1       146-4.26098E-10-4.82531E+03 3.96085E-10
 -1       150-5.31372E-10-5.61047E+03 4.69754E-10
 -1       154-5.80371E-10-6.47550E+03 5.18355E-10
 -1       158-6.85986E-10-6.13105E+03 4.14815E-10
 -1       163 1.41623E+03-1.45803E-11-2.31921E-11
 -1       167 2.66881E+03-4.95675E-11-6.66205E-11
 -1       171 3.80884E+03-1.16188E-10-1.20735E-10
 -1       175 4.82531E+03-2.03499E-10-1.70076E-10
 -1       179 5.61047E+03-3.05818E-10-2.05773E-10
 -1       183 6.47550E+03-4.06686E-10-2.40107E-10
 -1       187 6.13105E+03-4.63615E-10-2.05489E-10
 -1       192-4.32010E-11 1.41623E+03-6.52562E-11
 -1       196-7.50333E-11 2.66881E+03-1.66210E-10
 -1       200-7.43512E-11 3.80884E+03-2.86263E-10
 -1       204-4.22915E-11 4.82531E+03-3.97449E-10
 -1       208 1.43245E-11 5.61047E+03-4.70209E-10
 -1       212 1.01636E-10 6.47550E+03-5.19776E-10
 -1       216 1.30569E-10 6.13105E+03-4.21466E-10
 -1       222-4.20641E-11-5.17275E-12-1.13687E-13
 -1       228-1.17780E-10-3.06954E-12 0.00000E+00
 -1       234-1.76897E-10-4.88853E-12-6.82121E-13
 -1       240-2.24645E-10-1.36424E-11-2.27374E-13
 -1       246-2.61480E-10-2.79670E-11-6.82121E-13
 -1       252-2.57501E-10-5.57066E-11-1.13687E-12
 -1       258-1.36197E-10-1.33468E-10-2.52953E-12
 -3
    1PSTEP                         5           1           2          
    1PGM                1.000000E+00                                  
    1PGK                2.798655E+12                                  
    1PHID                         -1                                  
    1PSUBC                         0                                  
    1PMODE                         4                                  
  100CL  105 2.66253E+05          81                     2    5MODAL      1
 -4  DISP        4    1
 -5  D1          1    2    1    0
 -5  D2          1    2    2    0
 -5  D3          1    2    3    0
 -5  ALL         1    2    0    0    1ALL
 -1         1 0.00000E+00 0.00000E+00 0.00000E+00
 -1         2 0.00000E+00 0.00000E+00 0.00000E+00
 -1         3 0.00000E+00 0.00000E+00 0.00000E+00
 -1         4 0.00000E+00 0.00000E+00 0.00000E+00
 -1         5-1.26916E+01-1.26916E+01-5.69987E+03
 -1         6 1.26916E+01-1.26916E+01-5.69987E+03
 -1         7 1.26916E+01 1.26916E+01-5.69987E+03
 -1         8-1.26916E+01 1.26916E+01-5.69987E+03
 -1        10 0.00000E+00 0.00000E+00 0.00000E+00
 -1        13 0.00000E+00 0.00000E+00 0.00000E+00
 -1        16 0.00000E+00 0.00000E+00 0.00000E+00
 -1        19 0.00000E+00 0.00000E+00 0.00000E+00
 -1        22-1.40972E-11 1.91746E+01-5.72885E+03
 -1        25-1.91746E+01-5.68434E-11-5.72885E+03
 -1        28-3.02407E-11-1.91746E+01-5.72885E+03
 -1        31 1.91746E+01-7.11680E-11-5.72885E+03
 -1        34 3.18653E+02-3.18653E+02-1.07127E+03
 -1        36 2.69192E+02-2.69192E+02-2.13240E+03
 -1        38 2.43791E+02-2.43791E+02-3.12722E+03
 -1        40 2.07422E+02-2.07422E+02-3.99767E+03
 -1        42 1.62464E+02-1.62464E+02-4.71392E+03
 -1        44 1.14828E+02-1.14828E+02-5.24413E+03
 -1        46 5.36328E+01-5.36328E+01-5.57607E+03
 -1        49-5.36328E+01-5.36328E+01-5.57607E+03
 -1        51-1.14828E+02-1.14828E+02-5.24413E+03
 -1        53-1.62464E+02-1.62464E+02-4.71392E+03
 -1        55-2.07422E+02-2.07422E+02-3.99767E+03
 -1        57-2.43791E+02-2.43791E+02-3.12722E+03
 -1        59-2.69192E+02-2.69192E+02-2.13240E+03
 -1        61-3.18653E+02-3.18653E+02-1.07127E+03
 -1        64 3.18653E+02 3.18653E+02-1.07127E+03
 -1        66 2.69192E+02 2.69192E+02-2.13240E+03
 -1        68 2.43791E+02 2.43791E+02-3.12722E+03
 -1        70 2.07422E+02 2.07422E+02-3.99767E+03
 -1        72 1.62464E+02 1.62464E+02-4.71392E+03
 -1        74 1.14828E+02 1.14828E+02-5.24413E+03
 -1        76 5.36328E+01 5.36328E+01-5.57607E+03
 -1        79-3.18653E+02 3.18653E+02-1.07127E+03
 -1        81-2.69192E+02 2.69192E+02-2.13240E+03
 -1        83-2.43791E+02 2.43791E+02-3.12722E+03
 -1        85-2.07422E+02 2.07422E+02-3.99767E+03
 -1        87-1.62464E+02 1.62464E+02-4.71392E+03
 -1        89-1.14828E+02 1.14828E+02-5.24413E+03