    1C
    1UUSER                                                              
    1UDATE              22.april.2025                                   
    1UTIME              15:46:01                                        
    1UHOST                                                              
    1UPGM               CalculiX                                        
    1UVERSION           Version DEVELOPMENT                             
    1UCOMPILETIME       Mon Apr 21 14:04:07 CEST 2025                    
    1UDIR                                                               
    1UDBN                                                               
    1UMAT    1EL                                                        
    2C                            90                                     1
 -1         1 1.00000E+00 0.00000E+00 0.00000E+00
 -1         2 0.00000E+00 0.00000E+00 0.00000E+00
 -1         3 1.00000E+00 1.00000E+00 0.00000E+00
 -1         4 5.00000E-01 0.00000E+00 0.00000E+00
 -1         5 5.00000E-01 5.00000E-01 0.00000E+00
 -1         6 1.00000E+00 5.00000E-01 0.00000E+00
 -1         7 0.00000E+00 1.00000E+00 0.00000E+00
 -1         8 0.00000E+00 5.00000E-01 0.00000E+00
 -1         9 5.00000E-01 1.00000E+00 0.00000E+00
 -1        10 1.00000E+00 0.00000E+00 8.00000E+00
 -1        11 1.00000E+00 1.00000E+00 8.00000E+00
 -1        12 0.00000E+00 0.00000E+00 8.00000E+00
 -1        13 1.00000E+00 5.00000E-01 8.00000E+00
 -1        14 5.00000E-01 5.00000E-01 8.00000E+00
 -1        15 5.00000E-01 0.00000E+00 8.00000E+00
 -1        16 0.00000E+00 1.00000E+00 8.00000E+00
 -1        17 5.00000E-01 1.00000E+00 8.00000E+00
 -1        18 0.00000E+00 5.00000E-01 8.00000E+00
 -1        31 1.00000E+00 0.00000E+00 6.00000E+00
 -1        34 0.00000E+00 0.00000E+00 6.00000E+00
 -1        35 5.00000E-01 0.00000E+00 6.00000E+00
 -1        37 1.00000E+00 0.00000E+00 7.00000E+00
 -1        38 5.00000E-01 0.00000E+00 7.00000E+00
 -1        39 0.00000E+00 0.00000E+00 7.00000E+00
 -1        48 0.00000E+00 1.00000E+00 6.00000E+00
 -1        51 0.00000E+00 5.00000E-01 6.00000E+00
 -1        52 0.00000E+00 5.00000E-01 7.00000E+00
 -1        53 0.00000E+00 1.00000E+00 7.00000E+00
 -1        62 1.00000E+00 1.00000E+00 6.00000E+00
 -1        65 5.00000E-01 1.00000E+00 6.00000E+00
 -1        66 5.00000E-01 1.00000E+00 7.00000E+00
 -1        67 1.00000E+00 1.00000E+00 7.00000E+00
 -1        73 1.00000E+00 5.00000E-01 6.00000E+00
 -1        74 1.00000E+00 5.00000E-01 7.00000E+00
 -1       160 5.00000E-01 5.00000E-01 7.00000E+00
 -1       161 5.00000E-01 5.00000E-01 6.00000E+00
 -1       165 1.00000E+00 0.00000E+00 9.94635E-01
 -1       166 1.00000E+00 5.00000E-01 8.90320E-01
 -1       167 5.00000E-01 5.00000E-01 8.90320E-01
 -1       168 0.00000E+00 5.00000E-01 9.94714E-01
 -1       169 5.00000E-01 0.00000E+00 9.94635E-01
 -1       170 0.00000E+00 0.00000E+00 1.07536E+00
 -1       171 1.00000E+00 1.00000E+00 8.90320E-01
 -1       172 5.00000E-01 1.00000E+00 8.90320E-01
 -1       173 0.00000E+00 1.00000E+00 9.94714E-01
 -1       174 1.00000E+00 0.00000E+00 3.00924E+00
 -1       175 1.00000E+00 5.00000E-01 2.89463E+00
 -1       176 7.49936E-01 2.49935E-01 2.99457E+00
 -1       177 1.00000E+00 5.00000E-01 1.88496E+00
 -1       178 5.00000E-01 5.00000E-01 1.98935E+00
 -1       179 5.00000E-01 0.00000E+00 2.07000E+00
 -1       180 5.00000E-01 0.00000E+00 3.08996E+00
 -1       181 2.49935E-01 2.49935E-01 3.07530E+00
 -1       182 0.00000E+00 0.00000E+00 3.12558E+00
 -1       183 0.00000E+00 5.00000E-01 3.09003E+00
 -1       184 0.00000E+00 5.00000E-01 2.07008E+00
 -1       185 1.00000E+00 5.00000E-01 5.01460E+00
 -1       186 1.00000E+00 5.00000E-01 3.91460E+00
 -1       187 1.00000E+00 0.00000E+00 5.01460E+00
 -1       188 7.49936E-01 2.49935E-01 4.01454E+00
 -1       189 5.00000E-01 0.00000E+00 4.06482E+00
 -1       190 5.00000E-01 0.00000E+00 5.05022E+00
 -1       191 0.00000E+00 5.00000E-01 5.05022E+00
 -1       192 0.00000E+00 0.00000E+00 5.05022E+00
 -1       193 2.49935E-01 2.49935E-01 4.05016E+00
 -1       194 0.00000E+00 5.00000E-01 4.06489E+00
 -1       195 7.49936E-01 2.49935E-01 4.99994E+00
 -1       196 2.49935E-01 2.49935E-01 4.99994E+00
 -1       197 5.00000E-01 1.00000E+00 2.89471E+00
 -1       198 2.49935E-01 7.49936E-01 2.99465E+00
 -1       199 0.00000E+00 1.00000E+00 3.00938E+00
 -1       200 5.00000E-01 1.00000E+00 1.88503E+00
 -1       201 5.00000E-01 1.00000E+00 5.01467E+00
 -1       202 0.00000E+00 1.00000E+00 5.01467E+00
 -1       203 5.00000E-01 1.00000E+00 3.91467E+00
 -1       204 2.49935E-01 7.49936E-01 4.01460E+00
 -1       205 2.49935E-01 7.49936E-01 4.99994E+00
 -1       206 1.00000E+00 1.00000E+00 2.79032E+00
 -1       207 1.00000E+00 1.00000E+00 4.90000E+00
 -1       208 7.49936E-01 7.49936E-01 3.89994E+00
 -1       209 7.49936E-01 7.49936E-01 4.99994E+00
 -1       210 0.00000E+00 0.00000E+00 2.15072E+00
 -1       211 1.00000E+00 0.00000E+00 1.98927E+00
 -1       212 0.00000E+00 1.00000E+00 1.98943E+00
 -1       213 1.00000E+00 1.00000E+00 1.78064E+00
 -1       214 0.00000E+00 1.00000E+00 4.02933E+00
 -1       215 0.00000E+00 0.00000E+00 4.10044E+00
 -1       216 4.99871E-01 4.99871E-01 3.99987E+00
 -1       217 1.00000E+00 1.00000E+00 3.80000E+00
 -1       218 1.00000E+00 0.00000E+00 4.02920E+00
 -3
    3C                            31                                     1
 -1         1    6    0    1
 -2         2       210       211       212       170       179       169       168       184       178
 -1         2    6    0    1
 -2         2         3       213         1         5       171       167         4         6       166
 -1         3    6    0    1
 -2       210       214       215       216       183       194       182       181       204       193
 -1         4    6    0    1
 -2       215        34       216        48       192       196       193       191        51       205
 -1         5    6    0    1
 -2       212         7       213         2       173       172       200       168         8       167
 -1         6    6    0    1
 -2       213         2       211       212       167       169       177       200       168       178
 -1         7    6    0    1
 -2       212       214       216       217       199       204       198       197       203       208
 -1         8    6    0    1
 -2       214        48       216        62       202       205       204       201        65       209
 -1         9    6    0    1
 -2       210       211       212       216       179       178       184       181       176       198
 -1        10    6    0    1
 -2         7         3       213         2         9       171       172         8         5       167
 -1        11    6    0    1
 -2       210       215       218       216       182       189       180       181       193       188
 -1        12    6    0    1
 -2         1         2       211       213         4       169       165       166       167       177
 -1        13    6    0    1
 -2       217       211       212       213       175       178       197       206       177       200
 -1        14    6    0    1
 -2       215       218       216        31       189       188       193       190       187       195
 -1        15    6    0    1
 -2       216        48        34        62       205        51       196       209        65       161
 -1        16    6    0    1
 -2       217       218        62       216       186       185       207       208       188       209
 -1        17    6    0    1
 -2       211       218       217       216       174       186       175       176       188       208
 -1        18    6    0    1
 -2       210       211       216       218       179       176       181       180       174       188
 -1        19    6    0    1
 -2       218        62       216        31       185       209       188       187        73       195
 -1        20    6    0    1
 -2       215        48       216       214       191       205       193       194       202       204
 -1        21    6    0    1
 -2       215        34        31       216       192        35       190       193       196       195
 -1        22    6    0    1
 -2        34        62        31       216       161        73        35       196       209       195
 -1        23    6    0    1
 -2       210       216       212       214       181       198       184       183       204       199
 -1        24    6    0    1
 -2       214        62       216       217       201       209       204       203       207       208
 -1        25    6    0    1
 -2       216       217       211       212       208       175       176       198       197       178
 -1        45    6    0    1
 -2        34        16        11        48        52        17       160        51        53        66
 -1        46    6    0    1
 -2        11        62        31        34        67        73        74       160       161        35
 -1        47    6    0    1
 -2        12        11        34        16        14       160        39        18        17        52
 -1        54    6    0    1
 -2        62        48        34        11        65        51       161        67        66       160
 -1        56    6    0    1
 -2        34        11        10        31       160        13        38        35        74        37
 -1        57    6    0    1
 -2        10        11        34        12        13       160        38        15        14        39
 -3
    1PSTEP                         4           1           1          
  100CL  101 1.000000000          90                     0    1           1
 -4  DISP        4    1
 -5  D1          1    2    1    0
 -5  D2          1    2    2    0
 -5  D3          1    2    3    0
 -5  ALL         1    2    0    0    1ALL
 -1         1 0.00000E+00 0.00000E+00 0.00000E+00
 -1         2 1.42857E-04 4.33681E-19 0.00000E+00
 -1         3 0.00000E+00-1.42857E-04 0.00000E+00
 -1         4 7.14286E-05-3.43557E-18 0.00000E+00
 -1         5 7.14286E-05-7.14286E-05 0.00000E+00
 -1         6-4.20591E-18-7.14286E-05 0.00000E+00
 -1         7 1.42857E-04-1.42857E-04 0.00000E+00
 -1         8 1.42857E-04-7.14286E-05 0.00000E+00
 -1         9 7.14286E-05-1.42857E-04 0.00000E+00
 -1        10-4.46746E-16-1.75372E-15 3.80952E-03
 -1        11-4.54823E-16-1.42857E-04 3.80952E-03
 -1        12 1.42857E-04-1.75898E-15 3.80952E-03
 -1        13-4.50509E-16-7.14286E-05 3.80952E-03
 -1        14 7.14286E-05-7.14286E-05 3.80952E-03
 -1        15 7.14286E-05-1.75597E-15 3.80952E-03
 -1        16 1.42857E-04-1.42857E-04 3.80952E-03
 -1        17 7.14286E-05-1.42857E-04 3.80952E-03
 -1        18 1.42857E-04-7.14286E-05 3.80952E-03
 -1        31-3.26348E-16-1.11429E-15 2.85714E-03
 -1        34 1.42857E-04-1.11090E-15 2.85714E-03
 -1        35 7.14286E-05-1.11372E-15 2.85714E-03
 -1        37-3.87656E-16-1.42997E-15 3.33333E-03
 -1        38 7.14286E-05-1.43116E-15 3.33333E-03
 -1        39 1.42857E-04-1.43266E-15 3.33333E-03
 -1        48 1.42857E-04-1.42857E-04 2.85714E-03
 -1        51 1.42857E-04-7.14286E-05 2.85714E-03
 -1        52 1.42857E-04-7.14286E-05 3.33333E-03
 -1        53 1.42857E-04-1.42857E-04 3.33333E-03
 -1        62-3.27558E-16-1.42857E-04 2.85714E-03
 -1        65 7.14286E-05-1.42857E-04 2.85714E-03
 -1        66 7.14286E-05-1.42857E-04 3.33333E-03
 -1        67-3.92156E-16-1.42857E-04 3.33333E-03
 -1        73-3.26362E-16-7.14286E-05 2.85714E-03
 -1        74-3.89933E-16-7.14286E-05 3.33333E-03
 -1       160 7.14286E-05-7.14286E-05 3.33333E-03
 -1       161 7.14286E-05-7.14286E-05 2.85714E-03
 -1       165-2.18942E-17-4.34935E-17 4.73636E-04
 -1       166-1.93585E-17-7.14286E-05 4.23962E-04
 -1       167 7.14286E-05-7.14286E-05 4.23962E-04
 -1       168 1.42857E-04-7.14286E-05 4.73674E-04
 -1       169 7.14286E-05-4.23923E-17 4.73636E-04
 -1       170 1.42857E-04-4.13132E-17 5.12077E-04
 -1       171-1.64324E-17-1.42857E-04 4.23962E-04
 -1       172 7.14286E-05-1.42857E-04 4.23962E-04
 -1       173 1.42857E-04-1.42857E-04 4.73674E-04
 -1       174-1.31842E-16-3.31921E-16 1.43297E-03
 -1       175-1.20950E-16-7.14286E-05 1.37840E-03
 -1       176 3.57235E-05-3.57051E-05 1.42599E-03
 -1       177-6.22061E-17-7.14286E-05 8.97598E-04
 -1       178 7.14286E-05-7.14286E-05 9.47309E-04
 -1       179 7.14286E-05-1.62725E-16 9.85713E-04
 -1       180 7.14286E-05-3.43123E-16 1.47141E-03
 -1       181 1.07152E-04-3.57051E-05 1.46443E-03
 -1       182 1.42857E-04-3.42160E-16 1.48837E-03
 -1       183 1.42857E-04-7.14286E-05 1.47144E-03
 -1       184 1.42857E-04-7.14286E-05 9.85750E-04
 -1       185-2.61293E-16-7.14286E-05 2.38791E-03
 -1       186-1.87852E-16-7.14286E-05 1.86410E-03
 -1       187-2.63204E-16-8.22724E-16 2.38791E-03
 -1       188 3.57235E-05-3.57051E-05 1.91168E-03
 -1       189 7.14286E-05-5.65849E-16 1.93563E-03
 -1       190 7.14286E-05-8.29933E-16 2.40487E-03
 -1       191 1.42857E-04-7.14286E-05 2.40487E-03
 -1       192 1.42857E-04-8.24507E-16 2.40487E-03
 -1       193 1.07152E-04-3.57051E-05 1.92865E-03
 -1       194 1.42857E-04-7.14286E-05 1.93566E-03
 -1       195 3.57235E-05-3.57051E-05 2.38092E-03
 -1       196 1.07152E-04-3.57051E-05 2.38092E-03
 -1       197 7.14286E-05-1.42857E-04 1.37844E-03
 -1       198 1.07152E-04-1.07134E-04 1.42602E-03
 -1       199 1.42857E-04-1.42857E-04 1.43304E-03
 -1       200 7.14286E-05-1.42857E-04 8.97636E-04
 -1       201 7.14286E-05-1.42857E-04 2.38794E-03
 -1       202 1.42857E-04-1.42857E-04 2.38794E-03
 -1       203 7.14286E-05-1.42857E-04 1.86413E-03
 -1       204 1.07152E-04-1.07134E-04 1.91171E-03
 -1       205 1.07152E-04-1.07134E-04 2.38092E-03
 -1       206-1.10263E-16-1.42857E-04 1.32872E-03
 -1       207-2.53179E-16-1.42857E-04 2.33333E-03
 -1       208 3.57235E-05-1.07134E-04 1.85711E-03
 -1       209 3.57235E-05-1.07134E-04 2.38092E-03
 -1       210 1.42857E-04-1.65850E-16 1.02415E-03
 -1       211-7.02089E-17-1.55900E-16 9.47271E-04
 -1       212 1.42857E-04-1.42857E-04 9.47347E-04
 -1       213-5.32894E-17-1.42857E-04 8.47924E-04
 -1       214 1.42857E-04-1.42857E-04 1.91873E-03
 -1       215 1.42857E-04-5.66801E-16 1.95259E-03
 -1       216 7.14470E-05-7.14101E-05 1.90470E-03
 -1       217-1.76980E-16-1.42857E-04 1.80952E-03
 -1       218-1.99317E-16-5.61949E-16 1.91867E-03
 -3
    1PSTEP                         5           1           1          
  100CL  101 1.000000000          90                     0    1           1
 -4  STRESS      6    1
 -5  SXX         1    4    1    1
 -5  SYY         1    4    2    2
 -5  SZZ         1    4    3    3
 -5  SXY         1    4    1    2
 -5  SYZ         1    4    2    3
 -5  SZX         1    4    3    1
 -1         1 7.92229E-13-9.08875E-13 9.99990E+01 1.15008E-13-3.71007E-13-5.25270E-13
 -1         2-6.74832E-14 1.58619E-13 9.99990E+01-8.36813E-15-1.20521E-14-2.68359E-13
 -1         3 9.29093E-13-4.07702E-14 9.99990E+01 5.08797E-13-8.66112E-14-5.53784E-13
 -1         4 4.62548E-13-2.45541E-13 9.99990E+01-2.93084E-14-1.92787E-13-4.87467E-13
 -1         5 2.77675E-13 1.81665E-13 9.99990E+01 1.56612E-13-1.08181E-13-4.27582E-13
 -1         6 2.65783E-13-1.08062E-12 9.99990E+01 2.64350E-13-2.34936E-13-4.45980E-13
 -1         7 1.76277E-13 7.61476E-14 9.99990E+01 1.51429E-13-4.76272E-14-5.15347E-14
 -1         8-1.65320E-13 7.61476E-14 9.99990E+01 5.41857E-14-6.58317E-14-1.17919E-13
 -1         9 1.06809E-12 2.76169E-13 9.99990E+01 1.65456E-13-4.41482E-14-4.54144E-13
 -1        10 3.45681E-13 2.77846E-13 9.99990E+01-8.35728E-14-4.02610E-13 1.54379E-13
 -1        11-2.68109E-13-4.16042E-13 9.99990E+01-1.37067E-13 4.72640E-13 1.17353E-14
 -1        12-3.68885E-15-5.30332E-13 9.99990E+01 1.36439E-13-5.07476E-13 3.32291E-13
 -1        13 5.57209E-14-1.98801E-13 9.99990E+01-1.21659E-13 6.83516E-15 5.51565E-14
 -1        14 1.21994E-14-5.42249E-13 9.99990E+01-1.30356E-13-2.03927E-13 2.32855E-13
 -1        15 1.58364E-13 1.19408E-13 9.99990E+01-1.14132E-13-1.73879E-13 3.92934E-15
 -1        16 1.72316E-13 2.00799E-13 9.99990E+01-5.91177E-14-2.97502E-13-3.45087E-13
 -1        17 1.72316E-13 4.19163E-14 9.99990E+01-2.55849E-13-5.47245E-14-2.62326E-13
 -1        18-1.81630E-13-6.79593E-13 9.99990E+01 2.21181E-13-2.59370E-13 1.06154E-13
 -1        31 1.39150E-13 1.07233E-13 9.99990E+01 1.36665E-13 2.23429E-13 5.95197E-13
 -1        34-4.34926E-15-4.26594E-14 9.99990E+01 1.54517E-14-3.18588E-14 1.96432E-13
 -1        35 1.99806E-13 1.27056E-13 9.99990E+01 2.33360E-14-2.65722E-15 4.69301E-13
 -1        37 4.29725E-13 3.17124E-13 9.99990E+01 4.98761E-14-2.58467E-13 3.12104E-13
 -1        38 2.46380E-13 1.94433E-13 9.99990E+01-9.20463E-14-3.77715E-13 2.86945E-13
 -1        39-1.26823E-13 5.75322E-14 9.99990E+01 1.23512E-13-2.77319E-13 7.40630E-14
 -1        48-1.91477E-13-1.01682E-13 9.99990E+01 8.52553E-15-3.18411E-13-3.68131E-13
 -1        51-1.81761E-14-2.30695E-13 9.99990E+01 5.93322E-14-2.43525E-13-2.87964E-15
 -1        52-1.45449E-13 3.99402E-13 9.99990E+01 6.35726E-15 6.92597E-15-4.88582E-13
 -1        53 4.54765E-13 1.91449E-13 9.99990E+01-2.73394E-14-8.67389E-13-4.50925E-15
 -1        62 1.67421E-15 8.41532E-14 9.99990E+01-4.40870E-14-2.86261E-13-5.25219E-13
 -1        65-1.20503E-13-3.39400E-14 9.99990E+01-2.38627E-14-3.36098E-13-4.77124E-13
 -1        66-1.00744E-13-2.89800E-13 9.99990E+01-5.49213E-15-1.19447E-14 9.23939E-15
 -1        67-2.57813E-13-1.61781E-13 9.99990E+01 8.11893E-14 1.75357E-13 9.07946E-15
 -1        73 2.33036E-13 9.73773E-14 9.99990E+01 6.60489E-14-3.99473E-13-1.55350E-13
 -1        74-1.67005E-14 6.85132E-14 9.99990E+01 1.23434E-13 2.98014E-13 1.79351E-13
 -1       160-5.49420E-14-3.34006E-14 9.99990E+01-7.24243E-14 2.57003E-13 1.46232E-15
 -1       161 1.38541E-13-1.28809E-13 9.99990E+01-1.65540E-14-2.17534E-13-1.92595E-14
 -1       165 6.35481E-13 3.34540E-14 9.99990E+01 1.52478E-13-3.37578E-13-4.71648E-13
 -1       166 1.01091E-13-4.04423E-13 9.99990E+01-6.63122E-14-3.37199E-13-4.81591E-14
 -1       167-1.58506E-13 6.75790E-14 9.99990E+01-1.15127E-13-1.44912E-13-7.74213E-14
 -1       168 1.67172E-13 1.42608E-13 9.99990E+01 4.00093E-14 1.64364E-14-2.26150E-13
 -1       169-1.53700E-14-1.94409E-14 9.99990E+01-2.47133E-14-9.99613E-14-3.45307E-13
 -1       170-2.79673E-13-2.91811E-13 9.99990E+01 1.36294E-13-4.25857E-14-3.04678E-13
 -1       171 2.93564E-13-8.84349E-14 9.99990E+01 2.27116E-13-1.71515E-13-1.55265E-13
 -1       172 9.68358E-14-1.50260E-13 9.99990E+01 5.14373E-14-1.12337E-13-3.16508E-14
 -1       173 1.10651E-13 3.50086E-14 9.99990E+01 1.72251E-13-9.60820E-14-1.12274E-13
 -1       174-3.00359E-13-8.49064E-14 9.99990E+01 1.06010E-13-1.24946E-13-1.61138E-13
 -1       175 2.27361E-13 1.52739E-13 9.99990E+01 5.27716E-14 6.04195E-14 1.16117E-14
 -1       176-9.93015E-15-6.05799E-14 9.99990E+01-7.42290E-14-2.92451E-13-1.61221E-13
 -1       177-2.62329E-13-9.24267E-14 9.99990E+01-1.99463E-13-3.02007E-13-9.96129E-14
 -1       178-4.23362E-14-1.54930E-15 9.99990E+01-9.24336E-14-4.90307E-14-2.23941E-13
 -1       179-1.60289E-13-6.14641E-14 9.99990E+01-5.79220E-14-1.76572E-13-2.48556E-13
 -1       180-1.71255E-13-3.98568E-14 9.99990E+01 1.71027E-13 2.49162E-13-1.54585E-13
 -1       181 1.01951E-13 2.53665E-13 9.99990E+01 3.02665E-14-1.90788E-13-9.94655E-14
 -1       182-9.63489E-15 1.50938E-13 9.99990E+01 6.12833E-14-4.53402E-13-1.38582E-13
 -1       183-8.66827E-14 3.12326E-13 9.99990E+01 6.30433E-14 3.90269E-14-2.77208E-13
 -1       184-9.84547E-14 1.23028E-13 9.99990E+01-2.03664E-14-3.39752E-14-3.04290E-13
 -1       185 2.69619E-13 3.59002E-13 9.99990E+01 4.99733E-14-1.74290E-13-5.41761E-13
 -1       186-1.22135E-13-1.10675E-13 9.99990E+01 5.48201E-14 1.03884E-13-8.09598E-14
 -1       187 2.57822E-14 3.18379E-14 9.99990E+01 1.13052E-13 2.11600E-14 2.58904E-13
 -1       188-3.35938E-14-9.12015E-14 9.99990E+01-4.41599E-15-6.82223E-14-1.53147E-13
 -1       189 2.13161E-14-3.52857E-15 9.99990E+01-7.51918E-14-2.87870E-15-2.18311E-13
 -1       190-1.58882E-14-1.21950E-13 9.99990E+01 3.65556E-14 5.28285E-13 1.87988E-13
 -1       191 1.84419E-14 1.18841E-13 9.99990E+01-9.11941E-14-5.83872E-13 9.90981E-14
 -1       192-9.78830E-14-3.70772E-13 9.99990E+01 6.77510E-14-2.43044E-13 1.06382E-14
 -1       193 1.43282E-13-5.39972E-14 9.99990E+01-8.69495E-14-4.59583E-13 2.89381E-15
 -1       194-6.95363E-14 7.72587E-14 9.99990E+01-1.55922E-14-4.81367E-13 1.90271E-13
 -1       195-2.91921E-14-1.49465E-13 9.99990E+01-1.41601E-15 1.91339E-13 3.17468E-13
 -1       196-2.77616E-14-2.35290E-13 9.99990E+01-9.85463E-14-1.02534E-13 1.99677E-13
 -1       197 1.67870E-13 2.70741E-13 9.99990E+01 9.45899E-14 2.38791E-13-1.89484E-13
 -1       198-1.81026E-14 8.08915E-14 9.99990E+01 1.63848E-14-1.10494E-13-2.05924E-13
 -1       199 2.39384E-13 1.62288E-13 9.99990E+01 3.21737E-14 2.15996E-13-5.80878E-13
 -1       200-2.94739E-14-9.72046E-14 9.99990E+01-9.11687E-14-2.16919E-13-3.36644E-13
 -1       201-1.98408E-13 1.75647E-13 9.99990E+01-9.19072E-14 2.48306E-14-5.80159E-13
 -1       202-2.64007E-13 8.88170E-14 9.99990E+01-6.68749E-14 2.98548E-13-8.00176E-13
 -1       203-3.53120E-13-2.16981E-14 9.99990E+01-5.13009E-14-2.47131E-14-2.79118E-13
 -1       204-1.36626E-13-6.24253E-16 9.99990E+01-4.42819E-14-2.20504E-13-2.02642E-13
 -1       205-1.23640E-13 4.79853E-14 9.99990E+01-1.16995E-13-2.08826E-13-2.34109E-13
 -1       206-2.18193E-13-3.12166E-13 9.99990E+01 6.34038E-14-2.65052E-13-4.21377E-13
 -1       207-4.99729E-13-1.23973E-13 9.99990E+01 2.27584E-14 2.56700E-13-9.61483E-14
 -1       208-1.60689E-13-1.29509E-13 9.99990E+01-3.69947E-14-1.57339E-13 2.60404E-14
 -1       209-2.83439E-14 2.18130E-14 9.99990E+01-9.59870E-14-1.61916E-13-2.24641E-13
 -1       210-6.88988E-14 2.48813E-13 9.99990E+01 8.32631E-14-3.93270E-14-2.01761E-13
 -1       211-7.27585E-14-2.89363E-14 9.99990E+01-1.06249E-13-2.20399E-13-1.71127E-13
 -1       212 1.71344E-13 1.74065E-13 9.99990E+01 1.35671E-14 1.06459E-13-3.68650E-13
 -1       213-2.90264E-13-1.92991E-13 9.99990E+01-1.49718E-13-3.09347E-13 4.53913E-14
 -1       214-1.32654E-13 8.54370E-14 9.99990E+01-3.82137E-14 5.55889E-14-6.34365E-13
 -1       215 1.41958E-13-5.39972E-14 9.99990E+01-5.27188E-14-5.66210E-13 9.33554E-14
 -1       216 1.10674E-14-6.00017E-14 9.99990E+01-1.16312E-13-3.00554E-13-6.86324E-15
 -1       217-8.68598E-14 2.67351E-14 9.99990E+01 6.74718E-14 1.61058E-13-5.56758E-15
 -1       218-1.56728E-13 5.17926E-14 9.99990E+01 1.03759E-13 1.18769E-13-2.08194E-13
 -3
    1PSTEP                         6           1           1          
  100CL  101 1.000000000          90                     0    1           1
 -4  ERROR       1    1
 -5  STR(%)      1    1    0    0
 -1         1 2.87343E-12
 -1         2 3.06954E-12
 -1         3 3.06954E-12
 -1         4 2.97149E-12
 -1         5 3.06954E-12
 -1         6 2.97149E-12
 -1         7 3.06954E-12
 -1         8 3.06954E-12
 -1         9 3.06954E-12
 -1        10 4.26326E-13
 -1        11 6.13909E-13
 -1        12 2.13163E-13
 -1        13 5.20117E-13
 -1        14 4.13536E-13
 -1        15 3.19744E-13
 -1        16 4.00746E-13
 -1        17 5.07328E-13
 -1        18 3.06954E-13
 -1        31 9.84812E-13
 -1        34 9.72022E-13
 -1        35 9.78417E-13
 -1        37 7.05569E-13
 -1        38 6.99174E-13
 -1        39 5.92593E-13
 -1        48 9.72022E-13
 -1        51 9.72022E-13
 -1        52 6.86384E-13
 -1        53 6.86384E-13
 -1        62 9.84812E-13
 -1        65 9.78417E-13
 -1        66 7.92966E-13
 -1        67 7.99361E-13
 -1        73 9.84812E-13
 -1        74 7.99361E-13
 -1       160 7.92966E-13
 -1       161 9.78417E-13
 -1       165 2.89475E-12
 -1       166 2.97149E-12
 -1       167 3.06954E-12
 -1       168 2.99281E-12
 -1       169 2.99281E-12
 -1       170 2.64748E-12
 -1       171 3.06954E-12
 -1       172 3.06954E-12
 -1       173 2.99281E-12
 -1       174 2.25313E-12
 -1       175 2.25313E-12
 -1       176 2.25313E-12
 -1       177 2.99281E-12
 -1       178 2.91607E-12
 -1       179 2.57074E-12
 -1       180 1.90781E-12
 -1       181 1.90781E-12
 -1       182 1.75646E-12
 -1       183 1.87583E-12
 -1       184 2.57074E-12
 -1       185 1.28750E-12
 -1       186 1.59019E-12
 -1       187 1.28750E-12
 -1       188 1.59019E-12
 -1       189 1.43885E-12
 -1       190 1.13616E-12
 -1       191 1.12976E-12
 -1       192 1.12976E-12
 -1       193 1.43885E-12
 -1       194 1.40687E-12
 -1       195 1.28750E-12
 -1       196 1.28111E-12
 -1       197 2.25313E-12
 -1       198 2.25313E-12
 -1       199 2.22116E-12
 -1       200 2.99281E-12
 -1       201 1.25553E-12
 -1       202 1.24913E-12
 -1       203 1.55822E-12
 -1       204 1.55822E-12
 -1       205 1.28111E-12
 -1       206 2.32987E-12
 -1       207 1.28750E-12
 -1       208 1.59019E-12
 -1       209 1.28750E-12
 -1       210 2.22542E-12
 -1       211 2.91607E-12
 -1       212 2.91607E-12
 -1       213 3.06954E-12
 -1       214 1.52625E-12
 -1       215 1.28750E-12
 -1       216 1.59019E-12
 -1       217 1.59019E-12
 -1       218 1.59019E-12
 -3
 9999
