
                        S T E P       1


                                INCREMENT     1


 displacements (vx,vy,vz) for set N1 and time  0.1000000E+01

        95 -1.262804E-17 -1.185612E-15  1.185612E-15
       246  0.000000E+00  3.157979E-05  3.157979E-05
       258  0.000000E+00  3.771527E-05  3.771527E-05
       179  0.000000E+00  3.131764E-05  3.211516E-05
       100 -5.697355E-19  5.667874E-05  5.667874E-05

 forces (fx,fy,fz) for set N1 and time  0.1000000E+01

        95 -2.436202E-16 -7.071068E-01 -7.071068E-01
       246  2.350853E-14  9.928226E-13 -9.948301E-13
       258 -6.494913E-15 -7.466038E-13  7.449102E-13
       179 -1.577038E-14 -1.806715E-15 -1.247266E-15
       100  1.473648E-15  7.071068E-01  7.071068E-01
