
                        S T E P       1


                                INCREMENT     1


 displacements (vx,vy,vz) for set N1 and time  0.1000000E+01

       426  2.031815E-07  7.892372E-02 -1.836255E-03
