
                        S T E P       1


                                INCREMENT     1


 displacements (vx,vy,vz) for set NALL and time  0.1000000E+01

         1  0.000000E+00  0.000000E+00  0.000000E+00
         2  2.623426E-02  0.000000E+00  0.000000E+00
         3  2.623426E-02  2.623426E-02  0.000000E+00
         4 -2.587389E-17  2.623426E-02  0.000000E+00
         5  1.015768E-15  5.390797E-16  0.000000E+00
         6  2.623426E-02  6.640318E-16  0.000000E+00
         7  2.623426E-02  2.623426E-02  0.000000E+00
         8  1.055391E-15  2.623426E-02  0.000000E+00
         9  6.558564E-03 -4.632147E-17  0.000000E+00
        10  1.311713E-02 -9.898329E-17  0.000000E+00
        11  1.967569E-02 -7.169413E-17  0.000000E+00
        12  2.623426E-02  6.558564E-03  0.000000E+00
        13  2.623426E-02  1.311713E-02  0.000000E+00
        14  2.623426E-02  1.967569E-02  0.000000E+00
        15  1.967569E-02  2.623426E-02  0.000000E+00
        16  1.311713E-02  2.623426E-02  0.000000E+00
        17  6.558564E-03  2.623426E-02  0.000000E+00
        18  2.653119E-17  1.967569E-02  0.000000E+00
        19  5.585701E-17  1.311713E-02  0.000000E+00
        20  4.775109E-17  6.558564E-03  0.000000E+00
        21  6.558564E-03  5.777423E-16  0.000000E+00
        22  1.311713E-02  5.813313E-16  0.000000E+00
        23  1.967569E-02  6.174084E-16  0.000000E+00
        24  2.623426E-02  6.558564E-03  0.000000E+00
        25  2.623426E-02  1.311713E-02  0.000000E+00
        26  2.623426E-02  1.967569E-02  0.000000E+00
        27  1.967569E-02  2.623426E-02  0.000000E+00
        28  1.311713E-02  2.623426E-02  0.000000E+00
        29  6.558564E-03  2.623426E-02  0.000000E+00
        30  1.026335E-15  1.967569E-02  0.000000E+00
        31  9.924406E-16  1.311713E-02  0.000000E+00
        32  9.864248E-16  6.558564E-03  0.000000E+00
        33  2.623426E-02 -1.468859E-16 -2.506808E-16
        34  2.623426E-02 -2.761836E-16 -4.666965E-16
        35  2.623426E-02 -2.908203E-16 -3.610128E-16
        36  2.623426E-02 -3.390285E-16 -1.642468E-16
        37  2.623426E-02 -2.063315E-16  5.264360E-17
        38  2.623426E-02 -2.760261E-17  2.319260E-16
        39  2.623426E-02  2.075499E-16  4.586919E-16
        40  2.623426E-02  3.478070E-16  5.081236E-16
        41  2.623426E-02  5.334603E-16  3.630362E-16
        42  2.623426E-02  6.585520E-16  2.014545E-16
        43  2.623426E-02  7.753950E-16 -3.374865E-19
        44  2.623426E-02  8.065410E-16 -2.366786E-16
        45  2.623426E-02  6.886177E-16 -3.578130E-16
        46  2.623426E-02  6.403517E-16 -2.311098E-16
        47  2.623426E-02  5.724018E-16 -2.582069E-16
        48  9.343005E-16  6.157584E-16  1.212582E-16
        49  6.853217E-16  6.162256E-16  2.060142E-16
        50  3.164400E-16  7.006791E-16  1.787681E-16
        51  1.209254E-16  8.301154E-16  1.484439E-16
        52 -3.710237E-17  8.789491E-16  9.018221E-17
        53  3.127734E-17  7.627186E-16 -3.881940E-17
        54  2.311230E-16  5.872622E-16 -2.870940E-17
        55  4.445934E-16  3.666154E-16 -1.258778E-16
        56  7.922062E-16  5.791183E-17  1.771143E-17
        57  9.932890E-16 -2.544643E-16  8.946487E-17
        58  1.024181E-15 -4.194953E-16  1.243855E-16
        59  9.349087E-16 -4.271525E-16  7.551974E-17
        60  6.740600E-16 -3.557323E-16  1.147253E-16
        61  3.536084E-16 -1.618332E-16  2.435765E-16
        62  1.266673E-16 -6.723954E-17  4.497900E-17
        63  2.623426E-02  2.623426E-02 -1.759319E-16
        64  2.623426E-02  2.623426E-02 -1.431881E-16
        65  2.623426E-02  2.623426E-02 -1.789143E-16
        66  2.623426E-02  2.623426E-02 -2.740327E-16
        67  2.623426E-02  2.623426E-02 -1.736193E-16
        68  2.623426E-02  2.623426E-02 -1.215052E-16
        69  2.623426E-02  2.623426E-02 -1.059170E-16
        70  2.623426E-02  2.623426E-02  8.504209E-17
        71  2.623426E-02  2.623426E-02  4.935185E-17
        72  2.623426E-02  2.623426E-02 -4.671326E-17
        73  2.623426E-02  2.623426E-02 -1.092270E-16
        74  2.623426E-02  2.623426E-02 -5.649376E-17
        75  2.623426E-02  2.623426E-02 -2.001549E-16
        76  2.623426E-02  2.623426E-02 -2.285292E-16
        77  2.623426E-02  2.623426E-02 -1.091194E-16
        78  1.598178E-16  2.623426E-02  2.477332E-16
        79  4.013861E-16  2.623426E-02  3.960140E-16
        80  6.536747E-16  2.623426E-02  2.663251E-16
        81  8.130038E-16  2.623426E-02  1.826075E-16
        82  9.210972E-16  2.623426E-02 -1.683817E-16
        83  9.255021E-16  2.623426E-02 -3.573809E-16
        84  7.336079E-16  2.623426E-02 -4.892900E-16
        85  5.258597E-16  2.623426E-02 -5.256339E-16
        86  3.155481E-16  2.623426E-02 -3.875663E-16
        87  1.547237E-16  2.623426E-02 -2.369204E-16
        88  9.142258E-17  2.623426E-02  1.880810E-17
        89  1.655903E-16  2.623426E-02  1.540932E-16
        90  4.138462E-16  2.623426E-02  3.554349E-16
        91  6.525000E-16  2.623426E-02  3.127622E-16
        92  8.649925E-16  2.623426E-02  2.237792E-16
        93  1.311713E-02  6.558564E-03  0.000000E+00
        94  6.558564E-03  1.311713E-02  0.000000E+00
        95  1.311713E-02  1.311713E-02  0.000000E+00
        96  1.967569E-02  1.311713E-02  0.000000E+00
        97  1.311713E-02  1.967569E-02  0.000000E+00
        98  1.311713E-02  6.558564E-03  0.000000E+00
        99  6.558564E-03  1.311713E-02  0.000000E+00
       100  1.311713E-02  1.311713E-02  0.000000E+00
       101  1.967569E-02  1.311713E-02  0.000000E+00
       102  1.311713E-02  1.967569E-02  0.000000E+00
       103  1.311713E-02 -1.290280E-16 -9.623185E-17
       104  6.558564E-03 -1.811626E-16  3.945329E-17
       105  1.311713E-02 -1.980034E-16 -1.233276E-16
       106  1.967569E-02 -2.346808E-16 -2.887310E-16
       107  1.311713E-02 -3.220021E-16 -1.294742E-16
       108  6.558564E-03 -3.830135E-16  1.580687E-17
       109  1.311713E-02 -3.331097E-16 -6.575399E-17
       110  1.967569E-02 -3.373894E-16 -1.282103E-16
       111  1.311713E-02 -3.049524E-16  8.493555E-17
       112  6.558564E-03 -1.570824E-16  1.502875E-16
       113  1.311713E-02 -1.120553E-16  2.290961E-16
       114  1.967569E-02 -8.284761E-17  2.472997E-16
       115  1.311713E-02  1.273416E-16  2.037021E-16
       116  6.558564E-03  3.505690E-16  7.026067E-17
       117  1.311713E-02  3.655282E-16  2.347643E-16
       118  1.967569E-02  3.719601E-16  3.556297E-16
       119  1.311713E-02  5.863468E-16  1.572616E-16
       120  6.558564E-03  7.672565E-16  2.623580E-17
       121  1.311713E-02  7.272052E-16  9.649315E-17
       122  1.967569E-02  6.757597E-16  1.606080E-16
       123  1.311713E-02  7.910304E-16  3.612004E-17
       124  6.558564E-03  8.110122E-16  6.196765E-17
       125  1.311713E-02  7.627267E-16 -2.240941E-17
       126  1.967569E-02  7.483607E-16 -1.363488E-16
       127  1.311713E-02  7.387156E-16 -7.073451E-17
       128  6.558564E-03  6.168379E-16  2.034324E-17
       129  1.311713E-02  6.225835E-16 -1.483269E-16
       130  1.967569E-02  6.373982E-16 -1.978725E-16
       131  1.311713E-02  6.001028E-16 -1.088446E-17
       132  2.623426E-02  1.311713E-02 -2.083542E-16
       133  2.623426E-02  6.558564E-03 -3.823815E-16
       134  2.623426E-02  1.311713E-02 -3.021344E-16
       135  2.623426E-02  1.967569E-02 -2.423435E-16
       136  2.623426E-02  1.311713E-02 -3.026299E-16
       137  2.623426E-02  6.558564E-03 -1.939340E-16
       138  2.623426E-02  1.311713E-02 -2.014849E-16
       139  2.623426E-02  1.967569E-02 -2.339105E-16
       140  2.623426E-02  1.311713E-02 -8.747950E-17
       141  2.623426E-02  6.558564E-03  1.594550E-16
       142  2.623426E-02  1.311713E-02  8.173681E-17
       143  2.623426E-02  1.967569E-02 -2.274011E-17
       144  2.623426E-02  1.311713E-02  2.117246E-16
       145  2.623426E-02  6.558564E-03  3.531774E-16
       146  2.623426E-02  1.311713E-02  1.804979E-16
       147  2.623426E-02  1.967569E-02  1.398370E-16
       148  2.623426E-02  1.311713E-02  2.530345E-16
       149  2.623426E-02  6.558564E-03  1.394484E-16
       150  2.623426E-02  1.311713E-02  9.459806E-17
       151  2.623426E-02  1.967569E-02  2.329576E-17
       152  2.623426E-02  1.311713E-02 -6.778972E-17
       153  2.623426E-02  6.558564E-03 -2.045835E-16
       154  2.623426E-02  1.311713E-02 -1.946699E-16
       155  2.623426E-02  1.967569E-02 -1.370768E-16
       156  2.623426E-02  1.311713E-02 -2.667892E-16
       157  2.623426E-02  6.558564E-03 -2.452772E-16
       158  2.623426E-02  1.311713E-02 -2.334596E-16
       159  2.623426E-02  1.967569E-02 -2.252418E-16
       160  2.623426E-02  1.311713E-02 -1.977444E-16
       161  1.311713E-02  2.623426E-02  8.745847E-17
       162  1.967569E-02  2.623426E-02 -2.955313E-17
       163  1.311713E-02  2.623426E-02  6.876877E-17
       164  6.558564E-03  2.623426E-02  2.305829E-16
       165  1.311713E-02  2.623426E-02  4.031557E-17
       166  1.967569E-02  2.623426E-02 -1.192964E-16
       167  1.311713E-02  2.623426E-02  2.856802E-17
       168  6.558564E-03  2.623426E-02  1.117727E-16
       169  1.311713E-02  2.623426E-02 -1.945111E-16
       170  1.967569E-02  2.623426E-02 -2.189876E-16
       171  1.311713E-02  2.623426E-02 -2.987867E-16
       172  6.558564E-03  2.623426E-02 -3.410177E-16
       173  1.311713E-02  2.623426E-02 -2.792787E-16
       174  1.967569E-02  2.623426E-02 -7.287251E-17
       175  1.311713E-02  2.623426E-02 -2.034776E-16
       176  6.558564E-03  2.623426E-02 -3.533648E-16
       177  1.311713E-02  2.623426E-02 -2.109195E-16
       178  1.967569E-02  2.623426E-02 -7.203103E-17
       179  1.311713E-02  2.623426E-02 -1.089193E-16
       180  6.558564E-03  2.623426E-02 -1.869671E-16
       181  1.311713E-02  2.623426E-02 -4.722061E-17
       182  1.967569E-02  2.623426E-02 -2.017077E-17
       183  1.311713E-02  2.623426E-02  2.628597E-17
       184  6.558564E-03  2.623426E-02  1.054413E-16
       185  1.311713E-02  2.623426E-02  1.148033E-16
       186  1.967569E-02  2.623426E-02 -8.070658E-17
       187  1.311713E-02  2.623426E-02  4.809369E-17
       188  6.558564E-03  2.623426E-02  1.678339E-16
       189  1.311713E-02  2.623426E-02  4.195911E-17
       190  1.263383E-16  1.311713E-02  1.533964E-16
       191  3.305482E-16  1.967569E-02  3.402313E-16
       192  3.185587E-16  1.311713E-02  2.820246E-16
       193  3.501119E-16  6.558564E-03  2.709754E-16
       194  6.344725E-16  1.311713E-02  2.456720E-16
       195  7.891075E-16  1.967569E-02  1.325125E-16
       196  8.310435E-16  1.311713E-02  6.677625E-17
       197  9.010398E-16  6.558564E-03  7.547316E-17
       198  8.956142E-16  1.311713E-02  2.068958E-18
       199  9.165959E-16  1.967569E-02 -2.487324E-16
       200  8.766732E-16  1.311713E-02 -1.403090E-16
       201  8.940254E-16  6.558564E-03 -3.373426E-17
       202  7.505584E-16  1.311713E-02 -2.613399E-16
       203  4.893462E-16  1.967569E-02 -4.124409E-16
       204  4.948645E-16  1.311713E-02 -2.838287E-16
       205  4.942488E-16  6.558564E-03 -2.092616E-16
       206  2.144917E-16  1.311713E-02 -2.699811E-16
       207  1.076583E-16  1.967569E-02 -1.632249E-16
       208  6.168565E-17  1.311713E-02 -8.743296E-17
       209  3.975334E-17  6.558564E-03 -7.193252E-17
       210  4.170068E-17  1.311713E-02  2.219144E-17
       211  1.743495E-16  1.967569E-02  1.844071E-16
       212  1.661295E-16  1.311713E-02  2.076762E-16
       213  1.358612E-16  6.558564E-03  1.944224E-16
       214  3.557049E-16  1.311713E-02  2.929974E-16
       215  6.297112E-16  1.967569E-02  2.624668E-16
       216  6.336087E-16  1.311713E-02  2.036725E-16
       217  6.617353E-16  6.558564E-03  1.974027E-16
       218  8.857148E-16  1.311713E-02  1.759076E-16
       219  1.311713E-02  1.311713E-02 -3.313526E-18
       220  1.311713E-02  6.558564E-03 -8.158987E-17
       221  6.558564E-03  1.311713E-02  1.276058E-16
       222  1.311713E-02  1.311713E-02 -2.804460E-17
       223  1.967569E-02  1.311713E-02 -1.703164E-16
       224  1.311713E-02  1.967569E-02  2.901105E-17
       225  1.311713E-02  1.311713E-02 -4.582446E-17
       226  1.311713E-02  6.558564E-03 -4.604825E-17
       227  6.558564E-03  1.311713E-02  1.653736E-17
       228  1.311713E-02  1.311713E-02 -3.683409E-17
       229  1.967569E-02  1.311713E-02 -1.202318E-16
       230  1.311713E-02  1.967569E-02 -1.150756E-17
       231  1.311713E-02  1.311713E-02 -4.471122E-17
       232  1.311713E-02  6.558564E-03  9.192774E-17
       233  6.558564E-03  1.311713E-02 -9.128154E-17
       234  1.311713E-02  1.311713E-02 -4.394611E-17
       235  1.967569E-02  1.311713E-02  1.378349E-17
       236  1.311713E-02  1.967569E-02 -1.637614E-16
       237  1.311713E-02  1.311713E-02 -3.142338E-17
       238  1.311713E-02  6.558564E-03  1.093370E-16
       239  6.558564E-03  1.311713E-02 -1.570035E-16
       240  1.311713E-02  1.311713E-02 -1.203087E-17
       241  1.967569E-02  1.311713E-02  9.827745E-17
       242  1.311713E-02  1.967569E-02 -1.118999E-16
       243  1.311713E-02  1.311713E-02 -1.434961E-17
       244  1.311713E-02  6.558564E-03  2.348627E-17
       245  6.558564E-03  1.311713E-02 -6.322506E-17
       246  1.311713E-02  1.311713E-02 -5.181497E-17
       247  1.967569E-02  1.311713E-02  2.590730E-20
       248  1.311713E-02  1.967569E-02 -7.606754E-17
       249  1.311713E-02  1.311713E-02  1.396657E-17
       250  1.311713E-02  6.558564E-03 -7.579305E-19
       251  6.558564E-03  1.311713E-02  1.070060E-16
       252  1.311713E-02  1.311713E-02  1.975138E-17
       253  1.967569E-02  1.311713E-02 -7.251752E-17
       254  1.311713E-02  1.967569E-02  2.355021E-17
       255  1.311713E-02  1.311713E-02 -3.580540E-18
       256  1.311713E-02  6.558564E-03 -7.241095E-17
       257  6.558564E-03  1.311713E-02  1.097059E-16
       258  1.311713E-02  1.311713E-02  1.016270E-17
       259  1.967569E-02  1.311713E-02 -1.198398E-16
       260  1.311713E-02  1.967569E-02  3.382415E-17
       261  1.311713E-02  1.311713E-02 -2.688960E-17

 stresses (elem, integ.pnt.,sxx,syy,szz,sxy,sxz,syz) for set EALL and time  0.1000000E+01

         1   1 -4.511598E-03 -4.511598E-03 -9.070191E+02  1.240399E-12  1.098449E-12  2.871304E-13
         1   2 -4.511598E-03 -4.511598E-03 -9.070191E+02 -1.001781E-12 -4.805053E-13  1.394680E-13
         1   3 -4.511598E-03 -4.511598E-03 -9.070191E+02 -6.125457E-13  1.478884E-13  6.498910E-14
         1   4 -4.511598E-03 -4.511598E-03 -9.070191E+02  1.170113E-12 -6.098843E-13 -5.641899E-14
         1   5 -4.511598E-03 -4.511598E-03 -9.070191E+02  1.620459E-13 -1.526064E-12  2.831463E-13
         1   6 -4.511598E-03 -4.511598E-03 -9.070191E+02  6.081544E-13  1.965938E-12  4.231093E-13
         1   7 -4.511598E-03 -4.511598E-03 -9.070191E+02  1.620459E-13 -1.266473E-12 -1.297783E-12
         1   8 -4.511598E-03 -4.511598E-03 -9.070191E+02  5.322141E-13  9.777329E-13  2.343201E-14
         2   1 -4.511598E-03 -4.511598E-03 -9.070191E+02 -1.260610E-12 -1.088061E-12 -5.732822E-13
         2   2 -4.511598E-03 -4.511598E-03 -9.070191E+02  7.214334E-13  2.398919E-12 -2.369012E-12
         2   3 -4.511598E-03 -4.511598E-03 -9.070191E+02 -1.397303E-12 -9.445038E-13 -6.656090E-13
         2   4 -4.511598E-03 -4.511598E-03 -9.070191E+02 -1.321362E-12  2.495795E-12 -3.832230E-13
         2   5 -4.511598E-03 -4.511598E-03 -9.070191E+02  9.112842E-14  1.150612E-12 -2.033550E-14
         2   6 -4.511598E-03 -4.511598E-03 -9.070191E+02 -1.670688E-13 -7.649078E-13 -4.963305E-14
         2   7 -4.511598E-03 -4.511598E-03 -9.070191E+02  1.063165E-12  5.938869E-13 -3.543544E-13
         2   8 -4.511598E-03 -4.511598E-03 -9.070191E+02  5.315825E-14 -6.923233E-13 -1.432065E-13
         3   1 -4.511598E-03 -4.511598E-03 -9.070191E+02 -1.514875E-12  1.008194E-14  6.182497E-14
         3   2 -4.511598E-03 -4.511598E-03 -9.070191E+02  7.468793E-14 -3.178318E-13  2.553303E-13
         3   3 -4.511598E-03 -4.511598E-03 -9.070191E+02  3.076935E-13  1.471693E-12  5.882635E-13
         3   4 -4.511598E-03 -4.511598E-03 -9.070191E+02 -8.821605E-13 -7.004045E-13  1.540021E-13
         3   5 -4.511598E-03 -4.511598E-03 -9.070191E+02  4.443861E-13 -1.071310E-12 -1.254150E-13
         3   6 -4.511598E-03 -4.511598E-03 -9.070191E+02  3.176971E-13  9.825372E-13  4.824716E-13
         3   7 -4.511598E-03 -4.511598E-03 -9.070191E+02  7.987244E-14 -8.785153E-13  7.626516E-13
         3   8 -4.511598E-03 -4.511598E-03 -9.070191E+02  5.455181E-13  1.236843E-12 -1.318135E-13
         4   1 -4.511598E-03 -4.511598E-03 -9.070191E+02  8.809081E-13 -1.286258E-12 -6.848573E-14
         4   2 -4.511598E-03 -4.511598E-03 -9.070191E+02 -1.002413E-12  1.274616E-12  1.551129E-13
         4   3 -4.511598E-03 -4.511598E-03 -9.070191E+02 -1.518807E-13 -2.232140E-12  1.024508E-12
         4   4 -4.511598E-03 -4.511598E-03 -9.070191E+02  6.530870E-13 -4.028233E-13  1.133850E-12
         4   5 -4.511598E-03 -4.511598E-03 -9.070191E+02  2.095954E-12 -4.647223E-14  1.437169E-13
         4   6 -4.511598E-03 -4.511598E-03 -9.070191E+02  5.315825E-14 -8.295737E-13 -9.365353E-13
         4   7 -4.511598E-03 -4.511598E-03 -9.070191E+02  8.505320E-13  8.794915E-13  4.553243E-13
         4   8 -4.511598E-03 -4.511598E-03 -9.070191E+02  3.493256E-13 -5.343376E-13  3.666072E-13
         5   1 -4.511598E-03 -4.511598E-03 -9.070191E+02  4.969232E-13 -7.131925E-13 -1.340883E-12
         5   2 -4.511598E-03 -4.511598E-03 -9.070191E+02 -7.956827E-13  1.889834E-12 -8.771856E-13
         5   3 -4.511598E-03 -4.511598E-03 -9.070191E+02 -1.561638E-13 -6.066551E-13  7.604807E-14
         5   4 -4.511598E-03 -4.511598E-03 -9.070191E+02 -6.969602E-13 -9.164883E-13  7.926408E-13
         5   5 -4.511598E-03 -4.511598E-03 -9.070191E+02  1.187980E-12  1.488733E-12  5.081293E-13
         5   6 -4.511598E-03 -4.511598E-03 -9.070191E+02 -4.007928E-13 -4.449001E-13  1.093196E-12
         5   7 -4.511598E-03 -4.511598E-03 -9.070191E+02 -1.097824E-12  1.059565E-13 -1.400593E-12
         5   8 -4.511598E-03 -4.511598E-03 -9.070191E+02 -6.058318E-13 -5.801855E-13 -1.504572E-12
         6   1 -4.511598E-03 -4.511598E-03 -9.070191E+02 -3.872958E-13  7.594548E-13 -3.957916E-13
         6   2 -4.511598E-03 -4.511598E-03 -9.070191E+02  1.328956E-12 -2.138972E-12  1.502088E-12
         6   3 -4.511598E-03 -4.511598E-03 -9.070191E+02 -8.201558E-13 -4.161021E-13  5.259025E-13
         6   4 -4.511598E-03 -4.511598E-03 -9.070191E+02  5.088004E-13 -1.045186E-12 -2.993639E-13
         6   5 -4.511598E-03 -4.511598E-03 -9.070191E+02 -1.541589E-12 -8.444046E-13  8.440881E-13
         6   6 -4.511598E-03 -4.511598E-03 -9.070191E+02  7.594035E-15  2.095104E-12 -1.476075E-12
         6   7 -4.511598E-03 -4.511598E-03 -9.070191E+02  1.002413E-12 -1.009979E-12 -5.876338E-13
         6   8 -4.511598E-03 -4.511598E-03 -9.070191E+02 -1.169481E-12  4.227678E-13 -5.049768E-13
         7   1 -4.511598E-03 -4.511598E-03 -9.070191E+02 -5.240147E-13 -3.721254E-13  7.109637E-14
         7   2 -4.511598E-03 -4.511598E-03 -9.070191E+02 -2.984567E-13 -1.265495E-12  8.442527E-13
         7   3 -4.511598E-03 -4.511598E-03 -9.070191E+02  3.644874E-13 -4.955264E-13 -1.122380E-12
         7   4 -4.511598E-03 -4.511598E-03 -9.070191E+02  5.216992E-13 -2.936092E-13 -3.677044E-13
         7   5 -4.511598E-03 -4.511598E-03 -9.070191E+02 -1.503645E-12 -6.030505E-13 -8.303400E-13
         7   6 -4.511598E-03 -4.511598E-03 -9.070191E+02 -9.883308E-15 -2.930609E-13 -6.633258E-13
         7   7 -4.511598E-03 -4.511598E-03 -9.070191E+02  6.682488E-13 -2.291246E-13  1.268819E-12
         7   8 -4.511598E-03 -4.511598E-03 -9.070191E+02  5.304763E-15  7.860143E-13  2.482251E-12
         8   1 -4.511598E-03 -4.511598E-03 -9.070191E+02 -1.215046E-13 -1.519333E-13  1.060293E-12
         8   2 -4.511598E-03 -4.511598E-03 -9.070191E+02  5.847407E-13  8.840896E-15 -3.848272E-13
         8   3 -4.511598E-03 -4.511598E-03 -9.070191E+02 -3.341376E-13  1.815485E-12 -6.474576E-13
         8   4 -4.511598E-03 -4.511598E-03 -9.070191E+02 -1.139105E-12  1.974350E-12  1.944482E-13
         8   5 -4.511598E-03 -4.511598E-03 -9.070191E+02  8.049677E-13 -4.138974E-13 -2.789715E-13
         8   6 -4.511598E-03 -4.511598E-03 -9.070191E+02 -8.505320E-13  3.085561E-13 -4.700912E-13
         8   7 -4.511598E-03 -4.511598E-03 -9.070191E+02 -1.913697E-12 -2.828011E-13  1.659451E-12
         8   8 -4.511598E-03 -4.511598E-03 -9.070191E+02  5.315825E-14 -5.906532E-13 -1.607261E-13
         9   1 -4.511598E-03 -4.511598E-03 -9.070191E+02  6.655319E-13 -2.077004E-13 -8.714565E-13
         9   2 -4.511598E-03 -4.511598E-03 -9.070191E+02  4.016398E-13  2.460059E-13 -2.740266E-13
         9   3 -4.511598E-03 -4.511598E-03 -9.070191E+02 -1.445610E-12 -4.473077E-13  9.100479E-15
         9   4 -4.511598E-03 -4.511598E-03 -9.070191E+02  6.218668E-13  9.066035E-13  3.578498E-13
         9   5 -4.511598E-03 -4.511598E-03 -9.070191E+02  6.560308E-14 -3.315079E-13 -6.086830E-14
         9   6 -4.511598E-03 -4.511598E-03 -9.070191E+02  6.674311E-13  4.769559E-13 -8.949614E-14
         9   7 -4.511598E-03 -4.511598E-03 -9.070191E+02  2.554540E-13 -3.122255E-13  9.492029E-13
         9   8 -4.511598E-03 -4.511598E-03 -9.070191E+02  6.522430E-13 -5.671469E-14 -1.246455E-13
        10   1 -4.511598E-03 -4.511598E-03 -9.070191E+02 -1.518807E-13  1.006691E-12 -1.181658E-13
        10   2 -4.511598E-03 -4.511598E-03 -9.070191E+02  6.910572E-13  1.186821E-12 -2.009006E-13
        10   3 -4.511598E-03 -4.511598E-03 -9.070191E+02  2.187082E-12 -2.746144E-13  1.097162E-13
        10   4 -4.511598E-03 -4.511598E-03 -9.070191E+02  4.556421E-14 -1.111245E-12 -5.231578E-13
        10   5 -4.511598E-03 -4.511598E-03 -9.070191E+02  2.733853E-13 -4.172140E-13 -6.436918E-13
        10   6 -4.511598E-03 -4.511598E-03 -9.070191E+02  4.556421E-13 -5.835068E-13  3.134619E-13
        10   7 -4.511598E-03 -4.511598E-03 -9.070191E+02 -1.215046E-13 -7.796899E-13 -4.739729E-13
        10   8 -4.511598E-03 -4.511598E-03 -9.070191E+02 -2.202270E-13  4.274783E-14  1.370819E-12
        11   1 -4.511598E-03 -4.511598E-03 -9.070191E+02 -8.928411E-13  2.198769E-13  1.469134E-12
        11   2 -4.511598E-03 -4.511598E-03 -9.070191E+02  6.413465E-14  7.398616E-13  8.907202E-13
        11   3 -4.511598E-03 -4.511598E-03 -9.070191E+02  1.841012E-12  8.452037E-13 -8.344674E-13
        11   4 -4.511598E-03 -4.511598E-03 -9.070191E+02 -5.282001E-13  5.389690E-14 -3.823585E-13
        11   5 -4.511598E-03 -4.511598E-03 -9.070191E+02  6.715301E-13  3.825542E-13 -4.712504E-13
        11   6 -4.511598E-03 -4.511598E-03 -9.070191E+02 -4.522598E-13 -4.734703E-13 -6.084215E-13
        11   7 -4.511598E-03 -4.511598E-03 -9.070191E+02  2.007000E-13  2.759216E-13 -2.827777E-13
        11   8 -4.511598E-03 -4.511598E-03 -9.070191E+02 -1.044595E-12 -2.706196E-13 -1.093707E-12
        12   1 -4.511598E-03 -4.511598E-03 -9.070191E+02  1.412491E-12 -7.452513E-13  5.538763E-13
        12   2 -4.511598E-03 -4.511598E-03 -9.070191E+02  5.239884E-13 -4.950132E-13 -5.336842E-13
        12   3 -4.511598E-03 -4.511598E-03 -9.070191E+02 -7.290274E-13 -9.924845E-13 -8.747325E-14
        12   4 -4.511598E-03 -4.511598E-03 -9.070191E+02  9.796306E-13 -5.159912E-13 -4.928081E-13
        12   5 -4.511598E-03 -4.511598E-03 -9.070191E+02  4.100779E-13 -5.766419E-13 -1.193770E-13
        12   6 -4.511598E-03 -4.511598E-03 -9.070191E+02  8.809081E-13  5.242312E-13  2.071406E-12
        12   7 -4.511598E-03 -4.511598E-03 -9.070191E+02  6.075228E-14  5.451872E-13 -9.029337E-13
        12   8 -4.511598E-03 -4.511598E-03 -9.070191E+02  1.002413E-12  8.217157E-13  2.754718E-13
        13   1 -4.511598E-03 -4.511598E-03 -9.070191E+02  2.499572E-13 -7.474823E-13  8.949395E-15
        13   2 -4.511598E-03 -4.511598E-03 -9.070191E+02 -8.623225E-14 -9.452178E-13 -8.152609E-13
        13   3 -4.511598E-03 -4.511598E-03 -9.070191E+02 -2.132789E-13  9.248120E-13  6.114366E-13
        13   4 -4.511598E-03 -4.511598E-03 -9.070191E+02 -2.697866E-15 -7.848454E-13 -2.285829E-13
        13   5 -4.511598E-03 -4.511598E-03 -9.070191E+02  8.574801E-13 -6.407643E-13  3.956183E-13
        13   6 -4.511598E-03 -4.511598E-03 -9.070191E+02 -7.013491E-13 -5.255057E-13 -6.110560E-13
        13   7 -4.511598E-03 -4.511598E-03 -9.070191E+02 -4.486940E-13 -5.446270E-14  2.746200E-14
        13   8 -4.511598E-03 -4.511598E-03 -9.070191E+02 -2.153309E-13  3.699825E-13  1.002989E-13
        14   1 -4.511598E-03 -4.511598E-03 -9.070191E+02 -5.771467E-13 -4.960528E-13 -2.768047E-13
        14   2 -4.511598E-03 -4.511598E-03 -9.070191E+02 -1.442867E-13 -2.038179E-15  1.173845E-12
        14   3 -4.511598E-03 -4.511598E-03 -9.070191E+02 -5.771467E-13 -4.428089E-14 -8.689366E-13
        14   4 -4.511598E-03 -4.511598E-03 -9.070191E+02 -2.202270E-13  1.129436E-12  3.551452E-13
        14   5 -4.511598E-03 -4.511598E-03 -9.070191E+02 -4.328600E-13  3.679948E-13 -2.780286E-13
        14   6 -4.511598E-03 -4.511598E-03 -9.070191E+02  1.594747E-13  1.013128E-12 -2.405537E-12
        14   7 -4.511598E-03 -4.511598E-03 -9.070191E+02  6.075228E-13  6.513836E-13  6.032322E-13
        14   8 -4.511598E-03 -4.511598E-03 -9.070191E+02 -8.201558E-13  3.176366E-13 -5.488248E-13
        15   1 -4.511598E-03 -4.511598E-03 -9.070191E+02 -8.215650E-13  8.324159E-14  7.532122E-13
        15   2 -4.511598E-03 -4.511598E-03 -9.070191E+02 -9.368618E-13  1.470241E-13  2.722273E-13
        15   3 -4.511598E-03 -4.511598E-03 -9.070191E+02 -2.419133E-14 -1.687409E-12 -1.297320E-12
        15   4 -4.511598E-03 -4.511598E-03 -9.070191E+02  3.085600E-13  5.181181E-13 -6.952228E-14
        15   5 -4.511598E-03 -4.511598E-03 -9.070191E+02 -1.315177E-12 -5.209605E-14 -4.698212E-13
        15   6 -4.511598E-03 -4.511598E-03 -9.070191E+02  1.371725E-12  6.751485E-13  7.268513E-13
        15   7 -4.511598E-03 -4.511598E-03 -9.070191E+02  8.719048E-13  1.428983E-12  5.076597E-13
        15   8 -4.511598E-03 -4.511598E-03 -9.070191E+02  1.189468E-12 -6.873316E-13 -6.021774E-14
        16   1 -4.511598E-03 -4.511598E-03 -9.070191E+02  5.467705E-13  4.853805E-13 -4.494758E-13
        16   2 -4.511598E-03 -4.511598E-03 -9.070191E+02  5.315825E-14  9.802917E-13 -1.263726E-12
        16   3 -4.511598E-03 -4.511598E-03 -9.070191E+02  3.341376E-13 -2.725537E-13  1.824995E-14
        16   4 -4.511598E-03 -4.511598E-03 -9.070191E+02 -7.821856E-13 -4.880561E-13  1.395982E-12
        16   5 -4.511598E-03 -4.511598E-03 -9.070191E+02  2.293399E-12  3.720048E-13  6.008817E-13
        16   6 -4.511598E-03 -4.511598E-03 -9.070191E+02 -3.189495E-13 -7.531092E-14  2.050949E-12
        16   7 -4.511598E-03 -4.511598E-03 -9.070191E+02 -6.075228E-13 -2.763463E-12 -8.665074E-13
        16   8 -4.511598E-03 -4.511598E-03 -9.070191E+02  3.645137E-13 -4.125432E-13 -2.356460E-13
        17   1 -4.511598E-03 -4.511598E-03 -9.070191E+02  9.499249E-13  1.774240E-12 -6.695771E-13
        17   2 -4.511598E-03 -4.511598E-03 -9.070191E+02 -2.099201E-13 -1.049815E-12 -1.278852E-13
        17   3 -4.511598E-03 -4.511598E-03 -9.070191E+02 -9.865541E-13  1.929166E-13 -4.578728E-14
        17   4 -4.511598E-03 -4.511598E-03 -9.070191E+02  8.456508E-13  9.098551E-13 -3.678264E-13
        17   5 -4.511598E-03 -4.511598E-03 -9.070191E+02  4.623468E-14 -8.521407E-13 -2.657331E-13
        17   6 -4.511598E-03 -4.511598E-03 -9.070191E+02 -5.803941E-14 -1.850982E-13 -2.976825E-13
        17   7 -4.511598E-03 -4.511598E-03 -9.070191E+02 -2.285134E-12  1.356288E-13  7.524883E-13
        17   8 -4.511598E-03 -4.511598E-03 -9.070191E+02  2.549498E-14  3.744411E-15 -3.592234E-13
        18   1 -4.511598E-03 -4.511598E-03 -9.070191E+02 -7.290274E-13 -2.468639E-12  1.191815E-13
        18   2 -4.511598E-03 -4.511598E-03 -9.070191E+02  1.207452E-12  1.059834E-12 -3.129619E-13
        18   3 -4.511598E-03 -4.511598E-03 -9.070191E+02  8.809081E-13 -7.338666E-13 -1.806025E-13
        18   4 -4.511598E-03 -4.511598E-03 -9.070191E+02  8.885021E-13 -8.899329E-14 -1.241887E-12
        18   5 -4.511598E-03 -4.511598E-03 -9.070191E+02 -6.530870E-13  3.472355E-14 -9.481713E-13
        18   6 -4.511598E-03 -4.511598E-03 -9.070191E+02  1.518807E-13 -1.276382E-13  1.720289E-13
        18   7 -4.511598E-03 -4.511598E-03 -9.070191E+02  8.809081E-13  2.887927E-13 -2.940785E-13
        18   8 -4.511598E-03 -4.511598E-03 -9.070191E+02 -7.821856E-13  9.724556E-13  2.004458E-12
        19   1 -4.511598E-03 -4.511598E-03 -9.070191E+02  1.224515E-13  2.529599E-13  9.934578E-13
        19   2 -4.511598E-03 -4.511598E-03 -9.070191E+02  8.364482E-14  7.153621E-13  1.413273E-13
        19   3 -4.511598E-03 -4.511598E-03 -9.070191E+02  1.231181E-12  8.833506E-13  2.501327E-13
        19   4 -4.511598E-03 -4.511598E-03 -9.070191E+02 -1.237717E-12 -1.464608E-12 -2.892482E-13
        19   5 -4.511598E-03 -4.511598E-03 -9.070191E+02 -5.761998E-13  3.152192E-13  5.995637E-13
        19   6 -4.511598E-03 -4.511598E-03 -9.070191E+02 -8.342395E-14 -3.150964E-13  2.417114E-13
        19   7 -4.511598E-03 -4.511598E-03 -9.070191E+02  1.588100E-12 -8.693756E-13 -3.570793E-13
        19   8 -4.511598E-03 -4.511598E-03 -9.070191E+02 -5.390661E-13 -9.316363E-14 -1.283696E-13
        20   1 -4.511598E-03 -4.511598E-03 -9.070191E+02  4.860183E-13 -2.195054E-13 -5.709679E-13
        20   2 -4.511598E-03 -4.511598E-03 -9.070191E+02 -5.619586E-13 -2.349376E-14  6.407839E-13
        20   3 -4.511598E-03 -4.511598E-03 -9.070191E+02 -1.852945E-12 -1.100810E-12 -2.484266E-13
        20   4 -4.511598E-03 -4.511598E-03 -9.070191E+02  5.012063E-13  7.067944E-13  2.040658E-12
        20   5 -4.511598E-03 -4.511598E-03 -9.070191E+02  1.063165E-13  1.372205E-13  4.848878E-13
        20   6 -4.511598E-03 -4.511598E-03 -9.070191E+02 -5.847407E-13  1.599359E-12 -1.913921E-13
        20   7 -4.511598E-03 -4.511598E-03 -9.070191E+02 -1.579559E-12 -3.181751E-13  3.080349E-13
        20   8 -4.511598E-03 -4.511598E-03 -9.070191E+02  5.771467E-13 -5.015648E-13 -1.202009E-12