    1C
    1UModel: beam     Date: 10-Mar-1998                                 
    1UUSER                                                              
    1UDATE              15.september.2023                               
    1UTIME              11:22:56                                        
    1UHOST                                                              
    1UPGM               CalculiX                                        
    1UVERSION           Version DEVELOPMENT                             
    1UCOMPILETIME       Fri Sep 15 11:00:53 CEST 2023                    
    1UDIR                                                               
    1UDBN                                                               
    1UMAT    1EL                                                        
    2C                            20                                     1
 -1         2 1.00000E+00 0.00000E+00 0.00000E+00
 -1        10 5.00000E-01 0.00000E+00 0.00000E+00
 -1        11 7.50000E-01 0.00000E+00 0.00000E+00
 -1        12 1.00000E+00 2.50000E-01 0.00000E+00
 -1        13 1.00000E+00 5.00000E-01 0.00000E+00
 -1        33 1.00000E+00 0.00000E+00 5.00000E-01
 -1        34 1.00000E+00 0.00000E+00 1.00000E+00
 -1        93 5.00000E-01 2.50000E-01 0.00000E+00
 -1        95 5.00000E-01 5.00000E-01 0.00000E+00
 -1        96 7.50000E-01 5.00000E-01 0.00000E+00
 -1       103 5.00000E-01 0.00000E+00 5.00000E-01
 -1       105 5.00000E-01 0.00000E+00 1.00000E+00
 -1       106 7.50000E-01 0.00000E+00 1.00000E+00
 -1       132 1.00000E+00 5.00000E-01 5.00000E-01
 -1       133 1.00000E+00 2.50000E-01 1.00000E+00
 -1       134 1.00000E+00 5.00000E-01 1.00000E+00
 -1       219 5.00000E-01 5.00000E-01 5.00000E-01
 -1       220 5.00000E-01 2.50000E-01 1.00000E+00
 -1       222 5.00000E-01 5.00000E-01 1.00000E+00
 -1       223 7.50000E-01 5.00000E-01 1.00000E+00
 -3
    3C                             1                                     1
 -1         1    4    0    1
 -2        10         2        13        95       105        34       134       222        11        12
 -2        96        93       103        33       132       219       106       133       223       220
 -3
    1PSTEP                         1          23           1          
  100CL  101 1000.000000          20                     0    1           1
 -4  DISP        4    1
 -5  D1          1    2    1    0
 -5  D2          1    2    2    0
 -5  D3          1    2    3    0
 -5  ALL         1    2    0    0    1ALL
 -1         2 0.00000E+00 0.00000E+00 0.00000E+00
 -1        10 8.00056E-02 0.00000E+00 0.00000E+00
 -1        11 4.00028E-02-2.41864E-15 0.00000E+00
 -1        12-1.33756E-14-4.00028E-02 0.00000E+00
 -1        13-3.37556E-14-8.00056E-02 0.00000E+00
 -1        33 4.68566E-14-5.35315E-14 1.60024E-01
 -1        34 1.85257E-13-1.31215E-13 3.20047E-01
 -1        93 8.00056E-02-4.00028E-02 0.00000E+00
 -1        95 8.00056E-02-8.00056E-02 0.00000E+00
 -1        96 4.00028E-02-8.00056E-02 0.00000E+00
 -1       103 8.00056E-02-5.01181E-14 1.60024E-01
 -1       105 8.00056E-02-1.28401E-13 3.20047E-01
 -1       106 4.00028E-02-1.30064E-13 3.20047E-01
 -1       132 1.73578E-14-8.00056E-02 1.60024E-01
 -1       133 1.79425E-13-4.00028E-02 3.20047E-01
 -1       134 1.64252E-13-8.00056E-02 3.20047E-01
 -1       219 8.00056E-02-8.00056E-02 1.60024E-01
 -1       220 8.00056E-02-4.00028E-02 3.20047E-01
 -1       222 8.00056E-02-8.00056E-02 3.20047E-01
 -1       223 4.00028E-02-8.00056E-02 3.20047E-01
 -3
    1PSTEP                         2          23           1          
  100CL  101 1000.000000          20                     0    1           1
 -4  STRESS      6    1
 -5  SXX         1    4    1    1
 -5  SYY         1    4    2    2
 -5  SZZ         1    4    3    3
 -5  SXY         1    4    1    2
 -5  SYZ         1    4    2    3
 -5  SZX         1    4    3    1
 -1         2-2.37031E-11-2.52575E-11 1.99992E+01-2.07699E-13-7.00602E-12-2.51797E-12
 -1        10 1.61209E-10 1.76624E-10 1.99992E+01 3.27776E-12-3.83754E-12 2.76151E-12
 -1        11-1.19698E-11 3.22029E-12 2.00010E+01 1.16922E-12-2.64656E-12 3.39300E-13
 -1        12-4.73831E-11-4.84401E-11 2.00010E+01 1.32820E-12-3.78514E-12-2.33355E-13
 -1        13-2.13053E-10-2.06685E-10 1.99992E+01 3.58475E-14 9.27466E-13-1.60943E-12
 -1        33 6.03675E-11 5.93105E-11 2.00010E+01-2.24665E-12 4.05968E-12 4.60504E-14
 -1        34 2.69049E-11 3.32734E-11 1.99992E+01 2.66184E-12 9.47846E-13-2.00695E-12
 -1        93 8.42918E-12 9.41952E-12 2.00010E+01-4.88084E-13-2.54496E-12-1.02630E-12
 -1        95 1.33746E-10 1.33632E-10 1.99992E+01-2.86844E-12-3.12356E-12-2.66777E-13
 -1        96 8.57598E-11 8.07386E-11 2.00010E+01-1.73421E-13-3.51956E-12-3.93022E-12
 -1       103 3.75025E-11 3.84929E-11 2.00010E+01 1.92673E-12 3.40491E-12-2.14924E-12
 -1       105-1.83690E-10-1.83804E-10 1.99992E+01 9.47896E-13 1.08688E-11 1.62417E-12
 -1       106-6.98751E-11-7.48963E-11 2.00010E+01 1.29416E-12-2.16044E-12 2.25575E-12
 -1       132 4.72300E-11 4.41258E-11 2.00010E+01 2.11084E-12 5.34540E-13 7.56883E-13
 -1       133-7.94547E-11-8.25590E-11 2.00010E+01 1.60462E-12-2.60582E-12-2.80176E-12
 -1       134 7.03797E-11 5.06504E-11 1.99992E+01 5.39626E-12-9.35648E-12-8.75710E-13
 -1       219-1.26328E-10-1.27385E-10 2.00010E+01-2.33697E-12 1.45063E-12 6.05468E-12
 -1       220 9.66467E-11 9.55896E-11 2.00010E+01 5.19038E-14 1.42251E-13-4.00977E-12
 -1       222 1.22833E-11-1.69073E-11 1.99992E+01-2.82054E-12-1.19630E-12-9.08768E-12
 -1       223 3.51274E-11 2.57517E-11 2.00010E+01 2.45899E-13 1.71597E-12-3.87964E-12
 -3
    1PSTEP                         3          23           1          
  100CL  101 1000.000000          20                     0    1           1
 -4  PE          1    1
 -5  PE          1    1    0    0
 -1         2 3.19987E-01
 -1        10 3.19987E-01
 -1        11 3.20016E-01
 -1        12 3.20016E-01
 -1        13 3.19987E-01
 -1        33 3.20016E-01
 -1        34 3.19987E-01
 -1        93 3.20016E-01
 -1        95 3.19987E-01
 -1        96 3.20016E-01
 -1       103 3.20016E-01
 -1       105 3.19987E-01
 -1       106 3.20016E-01
 -1       132 3.20016E-01
 -1       133 3.20016E-01
 -1       134 3.19987E-01
 -1       219 3.20016E-01
 -1       220 3.20016E-01
 -1       222 3.19987E-01
 -1       223 3.20016E-01
 -3
    1PSTEP                         4          23           1          
  100CL  101 1000.000000          20                     0    1           1
 -4  ERROR       1    1
 -5  STR(%)      1    1    0    0
 -1         2 3.58009E-11
 -1        10 3.58009E-11
 -1        11 3.58009E-11
 -1        12 3.58009E-11
 -1        13 3.58009E-11
 -1        33 3.58009E-11
 -1        34 3.58009E-11
 -1        93 3.58009E-11
 -1        95 3.58009E-11
 -1        96 3.58009E-11
 -1       103 3.58009E-11
 -1       105 3.58009E-11
 -1       106 3.58009E-11
 -1       132 3.58009E-11
 -1       133 3.58009E-11
 -1       134 3.58009E-11
 -1       219 3.58009E-11
 -1       220 3.58009E-11
 -1       222 3.58009E-11
 -1       223 3.58009E-11
 -3
 9999
