
                        S T E P       1


                                INCREMENT   681


 displacements (vx,vy,vz) for set N1 and time  0.1000000E-04

       100 -1.155394E-17 -1.462209E-02  3.322196E-18
