    1C
    1UModel: beam     Date: 10-Mar-1998                                 
    1UUSER                                                              
    1UDATE              02.december.2023                                
    1UTIME              14:57:20                                        
    1UHOST                                                              
    1UPGM               CalculiX                                        
    1UVERSION           Version DEVELOPMENT                             
    1UCOMPILETIME       Sat Dec  2 14:42:26 CET 2023                    
    1UDIR                                                               
    1UDBN                                                               
    1UMAT    1EL                                                        
    2C                            81                                     1
 -1         1 0.00000E+00 0.00000E+00 0.00000E+00
 -1         2 1.00000E+00 0.00000E+00 0.00000E+00
 -1         3 1.00000E+00 1.50000E+00 0.00000E+00
 -1         4 0.00000E+00 1.50000E+00 0.00000E+00
 -1         5 0.00000E+00 0.00000E+00 8.00000E+00
 -1         6 1.00000E+00 0.00000E+00 8.00000E+00
 -1         7 1.00000E+00 1.50000E+00 8.00000E+00
 -1         8 0.00000E+00 1.50000E+00 8.00000E+00
 -1        10 5.00000E-01 0.00000E+00 0.00000E+00
 -1        13 1.00000E+00 7.50000E-01 0.00000E+00
 -1        16 5.00000E-01 1.50000E+00 0.00000E+00
 -1        19 0.00000E+00 7.50000E-01 0.00000E+00
 -1        22 5.00000E-01 0.00000E+00 8.00000E+00
 -1        25 1.00000E+00 7.50000E-01 8.00000E+00
 -1        28 5.00000E-01 1.50000E+00 8.00000E+00
 -1        31 0.00000E+00 7.50000E-01 8.00000E+00
 -1        34 1.00000E+00 0.00000E+00 1.00000E+00
 -1        36 1.00000E+00 0.00000E+00 2.00000E+00
 -1        38 1.00000E+00 0.00000E+00 3.00000E+00
 -1        40 1.00000E+00 0.00000E+00 4.00000E+00
 -1        42 1.00000E+00 0.00000E+00 5.00000E+00
 -1        44 1.00000E+00 0.00000E+00 6.00000E+00
 -1        46 1.00000E+00 0.00000E+00 7.00000E+00
 -1        49 0.00000E+00 0.00000E+00 7.00000E+00
 -1        51 0.00000E+00 0.00000E+00 6.00000E+00
 -1        53 0.00000E+00 0.00000E+00 5.00000E+00
 -1        55 0.00000E+00 0.00000E+00 4.00000E+00
 -1        57 0.00000E+00 0.00000E+00 3.00000E+00
 -1        59 0.00000E+00 0.00000E+00 2.00000E+00
 -1        61 0.00000E+00 0.00000E+00 1.00000E+00
 -1        64 1.00000E+00 1.50000E+00 1.00000E+00
 -1        66 1.00000E+00 1.50000E+00 2.00000E+00
 -1        68 1.00000E+00 1.50000E+00 3.00000E+00
 -1        70 1.00000E+00 1.50000E+00 4.00000E+00
 -1        72 1.00000E+00 1.50000E+00 5.00000E+00
 -1        74 1.00000E+00 1.50000E+00 6.00000E+00
 -1        76 1.00000E+00 1.50000E+00 7.00000E+00
 -1        79 0.00000E+00 1.50000E+00 1.00000E+00
 -1        81 0.00000E+00 1.50000E+00 2.00000E+00
 -1        83 0.00000E+00 1.50000E+00 3.00000E+00
 -1        85 0.00000E+00 1.50000E+00 4.00000E+00
 -1        87 0.00000E+00 1.50000E+00 5.00000E+00
 -1        89 0.00000E+00 1.50000E+00 6.00000E+00
 -1        91 0.00000E+00 1.50000E+00 7.00000E+00
 -1        95 5.00000E-01 7.50000E-01 0.00000E+00
 -1       100 5.00000E-01 7.50000E-01 8.00000E+00
 -1       105 5.00000E-01 0.00000E+00 1.00000E+00
 -1       109 5.00000E-01 0.00000E+00 2.00000E+00
 -1       113 5.00000E-01 0.00000E+00 3.00000E+00
 -1       117 5.00000E-01 0.00000E+00 4.00000E+00
 -1       121 5.00000E-01 0.00000E+00 5.00000E+00
 -1       125 5.00000E-01 0.00000E+00 6.00000E+00
 -1       129 5.00000E-01 0.00000E+00 7.00000E+00
 -1       134 1.00000E+00 7.50000E-01 1.00000E+00
 -1       138 1.00000E+00 7.50000E-01 2.00000E+00
 -1       142 1.00000E+00 7.50000E-01 3.00000E+00
 -1       146 1.00000E+00 7.50000E-01 4.00000E+00
 -1       150 1.00000E+00 7.50000E-01 5.00000E+00
 -1       154 1.00000E+00 7.50000E-01 6.00000E+00
 -1       158 1.00000E+00 7.50000E-01 7.00000E+00
 -1       163 5.00000E-01 1.50000E+00 1.00000E+00
 -1       167 5.00000E-01 1.50000E+00 2.00000E+00
 -1       171 5.00000E-01 1.50000E+00 3.00000E+00
 -1       175 5.00000E-01 1.50000E+00 4.00000E+00
 -1       179 5.00000E-01 1.50000E+00 5.00000E+00
 -1       183 5.00000E-01 1.50000E+00 6.00000E+00
 -1       187 5.00000E-01 1.50000E+00 7.00000E+00
 -1       192 0.00000E+00 7.50000E-01 1.00000E+00
 -1       196 0.00000E+00 7.50000E-01 2.00000E+00
 -1       200 0.00000E+00 7.50000E-01 3.00000E+00
 -1       204 0.00000E+00 7.50000E-01 4.00000E+00
 -1       208 0.00000E+00 7.50000E-01 5.00000E+00
 -1       212 0.00000E+00 7.50000E-01 6.00000E+00
 -1       216 0.00000E+00 7.50000E-01 7.00000E+00
 -1       222 5.00000E-01 7.50000E-01 1.00000E+00
 -1       228 5.00000E-01 7.50000E-01 2.00000E+00
 -1       234 5.00000E-01 7.50000E-01 3.00000E+00
 -1       240 5.00000E-01 7.50000E-01 4.00000E+00
 -1       246 5.00000E-01 7.50000E-01 5.00000E+00
 -1       252 5.00000E-01 7.50000E-01 6.00000E+00
 -1       258 5.00000E-01 7.50000E-01 7.00000E+00
 -3
    3C                            32                                     1
 -1         1    1    0    1
 -2         1        10        95        19        61       105       222       192
 -1         2    1    0    1
 -2        10         2        13        95       105        34       134       222
 -1         3    1    0    1
 -2        19        95        16         4       192       222       163        79
 -1         4    1    0    1
 -2        95        13         3        16       222       134        64       163
 -1         5    1    0    1
 -2        61       105       222       192        59       109       228       196
 -1         6    1    0    1
 -2       105        34       134       222       109        36       138       228
 -1         7    1    0    1
 -2       192       222       163        79       196       228       167        81
 -1         8    1    0    1
 -2       222       134        64       163       228       138        66       167
 -1         9    1    0    1
 -2        59       109       228       196        57       113       234       200
 -1        10    1    0    1
 -2       109        36       138       228       113        38       142       234
 -1        11    1    0    1
 -2       196       228       167        81       200       234       171        83
 -1        12    1    0    1
 -2       228       138        66       167       234       142        68       171
 -1        13    1    0    1
 -2        57       113       234       200        55       117       240       204
 -1        14    1    0    1
 -2       113        38       142       234       117        40       146       240
 -1        15    1    0    1
 -2       200       234       171        83       204       240       175        85
 -1        16    1    0    1
 -2       234       142        68       171       240       146        70       175
 -1        17    1    0    1
 -2        55       117       240       204        53       121       246       208
 -1        18    1    0    1
 -2       117        40       146       240       121        42       150       246
 -1        19    1    0    1
 -2       204       240       175        85       208       246       179        87
 -1        20    1    0    1
 -2       240       146        70       175       246       150        72       179
 -1        21    1    0    1
 -2        53       121       246       208        51       125       252       212
 -1        22    1    0    1
 -2       121        42       150       246       125        44       154       252
 -1        23    1    0    1
 -2       208       246       179        87       212       252       183        89
 -1        24    1    0    1
 -2       246       150        72       179       252       154        74       183
 -1        25    1    0    1
 -2        51       125       252       212        49       129       258       216
 -1        26    1    0    1
 -2       125        44       154       252       129        46       158       258
 -1        27    1    0    1
 -2       212       252       183        89       216       258       187        91
 -1        28    1    0    1
 -2       252       154        74       183       258       158        76       187
 -1        29    1    0    1
 -2        49       129       258       216         5        22       100        31
 -1        30    1    0    1
 -2       129        46       158       258        22         6        25       100
 -1        31    1    0    1
 -2       216       258       187        91        31       100        28         8
 -1        32    1    0    1
 -2       258       158        76       187       100        25         7        28
 -3
    1PSTEP                         1           1           1          
  100CL  101 3.31561E-08           1                     1    1           1
 -4  ENER        1    1
 -5  ENER        1    1    0    0
 -1       100 4.63363E-05
 -3
    1PSTEP                         2           2           1          
  100CL  102 6.63122E-08           1                     1    2           1
 -4  ENER        1    1
 -5  ENER        1    1    0    0
 -1       100 6.52292E-04
 -3
    1PSTEP                         3           3           1          
  100CL  103 9.94683E-08           1                     1    3           1
 -4  ENER        1    1
 -5  ENER        1    1    0    0
 -1       100 2.66534E-03
 -3
    1PSTEP                         4           4           1          
  100CL  104 1.32624E-07           1                     1    4           1
 -4  ENER        1    1
 -5  ENER        1    1    0    0
 -1       100 6.34938E-03
 -3
    1PSTEP                         5           5           1          
  100CL  105 1.65780E-07           1                     1    5           1
 -4  ENER        1    1
 -5  ENER        1    1    0    0
 -1       100 1.11664E-02
 -3
    1PSTEP                         6           6           1          
  100CL  106 1.98937E-07           1                     1    6           1
 -4  ENER        1    1
 -5  ENER        1    1    0    0
 -1       100 1.61301E-02
 -3
    1PSTEP                         7           7           1          
  100CL  107 2.32093E-07           1                     1    7           1
 -4  ENER        1    1
 -5  ENER        1    1    0    0
 -1       100 2.00222E-02
 -3
    1PSTEP                         8           8           1          
  100CL  108 2.65249E-07           1                     1    8           1
 -4  ENER        1    1
 -5  ENER        1    1    0    0
 -1       100 2.16933E-02
 -3
    1PSTEP                         9           9           1          
  100CL  109 2.98405E-07           1                     1    9           1
 -4  ENER        1    1
 -5  ENER        1    1    0    0
 -1       100 2.08102E-02
 -3
    1PSTEP                        10          10           1          
  100CL  110 3.31561E-07           1                     1   10           1
 -4  ENER        1    1
 -5  ENER        1    1    0    0
 -1       100 1.82701E-02
 -3
    1PSTEP                        11          11           1          
  100CL  111 3.64717E-07           1                     1   11           1
 -4  ENER        1    1
 -5  ENER        1    1    0    0
 -1       100 1.54540E-02
 -3
    1PSTEP                        12          12           1          
  100CL  112 3.97873E-07           1                     1   12           1
 -4  ENER        1    1
 -5  ENER        1    1    0    0
 -1       100 1.30946E-02
 -3
    1PSTEP                        13          13           1          
  100CL  113 4.31029E-07           1                     1   13           1
 -4  ENER        1    1
 -5  ENER        1    1    0    0
 -1       100 1.11603E-02
 -3
    1PSTEP                        14          14           1          
  100CL  114 4.64185E-07           1                     1   14           1
 -4  ENER        1    1
 -5  ENER        1    1    0    0
 -1       100 9.64518E-03
 -3
    1PSTEP                        15          15           1          
  100CL  115 4.97341E-07           1                     1   15           1
 -4  ENER        1    1
 -5  ENER        1    1    0    0
 -1       100 8.93660E-03
 -3
    1PSTEP                        16          16           1          
  100CL  116 5.30498E-07           1                     1   16           1
 -4  ENER        1    1
 -5  ENER        1    1    0    0
 -1       100 9.32796E-03
 -3
    1PSTEP                        17          17           1          
  100CL  117 5.63654E-07           1                     1   17           1
 -4  ENER        1    1
 -5  ENER        1    1    0    0
 -1       100 1.05559E-02
 -3
    1PSTEP                        18          18           1          
  100CL  118 5.96810E-07           1                     1   18           1
 -4  ENER        1    1
 -5  ENER        1    1    0    0
 -1       100 1.19929E-02
 -3
    1PSTEP                        19          19           1          
  100CL  119 6.29966E-07           1                     1   19           1
 -4  ENER        1    1
 -5  ENER        1    1    0    0
 -1       100 1.31148E-02
 -3
    1PSTEP                        20          20           1          
  100CL  120 6.63122E-07           1                     1   20           1
 -4  ENER        1    1
 -5  ENER        1    1    0    0
 -1       100 1.37046E-02
 -3
    1PSTEP                        21          21           1          
  100CL  121 6.96278E-07           1                     1   21           1
 -4  ENER        1    1
 -5  ENER        1    1    0    0
 -1       100 1.37731E-02
 -3
    1PSTEP                        22          22           1          
  100CL  122 7.29434E-07           1                     1   22           1
 -4  ENER        1    1
 -5  ENER        1    1    0    0
 -1       100 1.34104E-02
 -3
    1PSTEP                        23          23           1          
  100CL  123 7.62590E-07           1                     1   23           1
 -4  ENER        1    1
 -5  ENER        1    1    0    0
 -1       100 1.27167E-02
 -3
    1PSTEP                        24          24           1          
  100CL  124 7.95746E-07           1                     1   24           1
 -4  ENER        1    1
 -5  ENER        1    1    0    0
 -1       100 1.18884E-02
 -3
    1PSTEP                        25          25           1          
  100CL  125 8.28902E-07           1                     1   25           1
 -4  ENER        1    1
 -5  ENER        1    1    0    0
 -1       100 1.13248E-02
 -3
    1PSTEP                        26          26           1          
  100CL  126 8.62059E-07           1                     1   26           1
 -4  ENER        1    1
 -5  ENER        1    1    0    0
 -1       100 1.14424E-02
 -3
    1PSTEP                        27          27           1          
  100CL  127 8.95215E-07           1                     1   27           1
 -4  ENER        1    1
 -5  ENER        1    1    0    0
 -1       100 1.22411E-02
 -3
    1PSTEP                        28          28           1          
  100CL  128 9.28371E-07           1                     1   28           1
 -4  ENER        1    1
 -5  ENER        1    1    0    0
 -1       100 1.31788E-02
 -3
    1PSTEP                        29          29           1          
  100CL  129 9.61527E-07           1                     1   29           1
 -4  ENER        1    1
 -5  ENER        1    1    0    0
 -1       100 1.36475E-02
 -3
    1PSTEP                        30          30           1          
  100CL  130 9.94683E-07           1                     1   30           1
 -4  ENER        1    1
 -5  ENER        1    1    0    0
 -1       100 1.35255E-02
 -3
    1PSTEP                        31          31           1          
  100CL  131 1.02784E-06           1                     1   31           1
 -4  ENER        1    1
 -5  ENER        1    1    0    0
 -1       100 1.31650E-02
 -3
    1PSTEP                        32          32           1          
  100CL  132 1.06100E-06           1                     1   32           1
 -4  ENER        1    1
 -5  ENER        1    1    0    0
 -1       100 1.29337E-02
 -3
    1PSTEP                        33          33           1          
  100CL  133 1.09415E-06           1                     1   33           1
 -4  ENER        1    1
 -5  ENER        1    1    0    0
 -1       100 1.28964E-02
 -3
    1PSTEP                        34          34           1          
  100CL  134 1.12731E-06           1                     1   34           1
 -4  ENER        1    1
 -5  ENER        1    1    0    0
 -1       100 1.28723E-02
 -3
    1PSTEP                        35          35           1          
  100CL  135 1.16046E-06           1                     1   35           1
 -4  ENER        1    1
 -5  ENER        1    1    0    0
 -1       100 1.26551E-02
 -3
    1PSTEP                        36          36           1          
  100CL  136 1.19362E-06           1                     1   36           1
 -4  ENER        1    1
 -5  ENER        1    1    0    0
 -1       100 1.21875E-02
 -3
    1PSTEP                        37          37           1          
  100CL  137 1.22678E-06           1                     1   37           1
 -4  ENER        1    1
 -5  ENER        1    1    0    0
 -1       100 1.16120E-02
 -3
    1PSTEP                        38          38           1          
  100CL  138 1.25993E-06           1                     1   38           1
 -4  ENER        1    1
 -5  ENER        1    1    0    0
 -1       100 1.11594E-02
 -3
    1PSTEP                        39          39           1          
  100CL  139 1.29309E-06           1                     1   39           1
 -4  ENER        1    1
 -5  ENER        1    1    0    0
 -1       100 1.09619E-02
 -3
    1PSTEP                        40          40           1          
  100CL  140 1.32624E-06           1                     1   40           1
 -4  ENER        1    1
 -5  ENER        1    1    0    0
 -1       100 1.09893E-02
 -3
    1PSTEP                        41          41           1          
  100CL  141 1.35940E-06           1                     1   41           1
 -4  ENER        1    1
 -5  ENER        1    1    0    0
 -1       100 1.11324E-02
 -3
    1PSTEP                        42          42           1          
  100CL  142 1.39256E-06           1                     1   42           1
 -4  ENER        1    1
 -5  ENER        1    1    0    0
 -1       100 1.12673E-02
 -3
    1PSTEP                        43          43           1          
  100CL  143 1.42571E-06           1                     1   43           1
 -4  ENER        1    1
 -5  ENER        1    1    0    0
 -1       100 1.12746E-02
 -3
    1PSTEP                        44          44           1          
  100CL  144 1.45887E-06           1                     1   44           1
 -4  ENER        1    1
 -5  ENER        1    1    0    0
 -1       100 1.11515E-02
 -3
    1PSTEP                        45          45           1          
  100CL  145 1.49202E-06           1                     1   45           1
 -4  ENER        1    1
 -5  ENER        1    1    0    0
 -1       100 1.11360E-02
 -3
    1PSTEP                        46          46           1          
  100CL  146 1.52518E-06           1                     1   46           1
 -4  ENER        1    1
 -5  ENER        1    1    0    0
 -1       100 1.15714E-02
 -3
    1PSTEP                        47          47           1          
  100CL  147 1.55834E-06           1                     1   47           1
 -4  ENER        1    1
 -5  ENER        1    1    0    0
 -1       100 1.25575E-02
 -3
    1PSTEP                        48          48           1          
  100CL  148 1.59149E-06           1                     1   48           1
 -4  ENER        1    1
 -5  ENER        1    1    0    0
 -1       100 1.38013E-02
 -3
    1PSTEP                        49          49           1          
  100CL  149 1.62465E-06           1                     1   49           1
 -4  ENER        1    1
 -5  ENER        1    1    0    0
 -1       100 1.48482E-02
 -3
    1PSTEP                        50          50           1          
  100CL  150 1.65780E-06           1                     1   50           1
 -4  ENER        1    1
 -5  ENER        1    1    0    0
 -1       100 1.53784E-02
 -3
    1PSTEP                        51          51           1          
  100CL  151 1.69096E-06           1                     1   51           1
 -4  ENER        1    1
 -5  ENER        1    1    0    0
 -1       100 1.52687E-02
 -3
    1PSTEP                        52          52           1          
  100CL  152 1.72412E-06           1                     1   52           1
 -4  ENER        1    1
 -5  ENER        1    1    0    0
 -1       100 1.45096E-02
 -3
    1PSTEP                        53          53           1          
  100CL  153 1.75727E-06           1                     1   53           1
 -4  ENER        1    1
 -5  ENER        1    1    0    0
 -1       100 1.31961E-02
 -3
    1PSTEP                        54          54           1          
  100CL  154 1.79043E-06           1                     1   54           1
 -4  ENER        1    1
 -5  ENER        1    1    0    0
 -1       100 1.15835E-02
 -3
    1PSTEP                        55          55           1          
  100CL  155 1.82359E-06           1                     1   55           1
 -4  ENER        1    1
 -5  ENER        1    1    0    0
 -1       100 1.00778E-02
 -3
    1PSTEP                        56          56           1          
  100CL  156 1.85674E-06           1                     1   56           1
 -4  ENER        1    1
 -5  ENER        1    1    0    0
 -1       100 9.10370E-03
 -3
    1PSTEP                        57          57           1          
  100CL  157 1.88990E-06           1                     1   57           1
 -4  ENER        1    1
 -5  ENER        1    1    0    0
 -1       100 8.90650E-03
 -3
    1PSTEP                        58          58           1          
  100CL  158 1.92305E-06           1                     1   58           1
 -4  ENER        1    1
 -5  ENER        1    1    0    0
 -1       100 9.43349E-03
 -3
    1PSTEP                        59          59           1          
  100CL  159 1.95621E-06           1                     1   59           1
 -4  ENER        1    1
 -5  ENER        1    1    0    0
 -1       100 1.04604E-02
 -3
    1PSTEP                        60          60           1          
  100CL  160 1.98937E-06           1                     1   60           1
 -4  ENER        1    1
 -5  ENER        1    1    0    0
 -1       100 1.18888E-02
 -3
    1PSTEP                        61          61           1          
  100CL  161 2.02252E-06           1                     1   61           1
 -4  ENER        1    1
 -5  ENER        1    1    0    0
 -1       100 1.38519E-02
 -3
    1PSTEP                        62          62           1          
  100CL  162 2.05568E-06           1                     1   62           1
 -4  ENER        1    1
 -5  ENER        1    1    0    0
 -1       100 1.64331E-02
 -3
    1PSTEP                        63          63           1          
  100CL  163 2.08883E-06           1                     1   63           1
 -4  ENER        1    1
 -5  ENER        1    1    0    0
 -1       100 1.93193E-02
 -3
    1PSTEP                        64          64           1          
  100CL  164 2.12199E-06           1                     1   64           1
 -4  ENER        1    1
 -5  ENER        1    1    0    0
 -1       100 2.18412E-02
 -3
    1PSTEP                        65          65           1          
  100CL  165 2.15515E-06           1                     1   65           1
 -4  ENER        1    1
 -5  ENER        1    1    0    0
 -1       100 2.33718E-02
 -3
    1PSTEP                        66          66           1          
  100CL  166 2.18830E-06           1                     1   66           1
 -4  ENER        1    1
 -5  ENER        1    1    0    0
 -1       100 2.36714E-02
 -3
    1PSTEP                        67          67           1          
  100CL  167 2.22146E-06           1                     1   67           1
 -4  ENER        1    1
 -5  ENER        1    1    0    0
 -1       100 2.29535E-02
 -3
    1PSTEP                        68          68           1          
  100CL  168 2.25461E-06           1                     1   68           1
 -4  ENER        1    1
 -5  ENER        1    1    0    0
 -1       100 2.17560E-02
 -3
    1PSTEP                        69          69           1          
  100CL  169 2.28777E-06           1                     1   69           1
 -4  ENER        1    1
 -5  ENER        1    1    0    0
 -1       100 2.07177E-02
 -3
    1PSTEP                        70          70           1          
  100CL  170 2.32093E-06           1                     1   70           1
 -4  ENER        1    1
 -5  ENER        1    1    0    0
 -1       100 2.02928E-02
 -3
    1PSTEP                        71          71           1          
  100CL  171 2.35408E-06           1                     1   71           1
 -4  ENER        1    1
 -5  ENER        1    1    0    0
 -1       100 2.05335E-02
 -3
    1PSTEP                        72          72           1          
  100CL  172 2.38724E-06           1                     1   72           1
 -4  ENER        1    1
 -5  ENER        1    1    0    0
 -1       100 2.10940E-02
 -3
    1PSTEP                        73          73           1          
  100CL  173 2.42040E-06           1                     1   73           1
 -4  ENER        1    1
 -5  ENER        1    1    0    0
 -1       100 2.14264E-02
 -3
    1PSTEP                        74          74           1          
  100CL  174 2.45355E-06           1                     1   74           1
 -4  ENER        1    1
 -5  ENER        1    1    0    0
 -1       100 2.10223E-02
 -3
    1PSTEP                        75          75           1          
  100CL  175 2.48671E-06           1                     1   75           1
 -4  ENER        1    1
 -5  ENER        1    1    0    0
 -1       100 1.96222E-02
 -3
    1PSTEP                        76          76           1          
  100CL  176 2.51986E-06           1                     1   76           1
 -4  ENER        1    1
 -5  ENER        1    1    0    0
 -1       100 1.73423E-02
 -3
    1PSTEP                        77          77           1          
  100CL  177 2.55302E-06           1                     1   77           1
 -4  ENER        1    1
 -5  ENER        1    1    0    0
 -1       100 1.46097E-02
 -3
    1PSTEP                        78          78           1          
  100CL  178 2.58618E-06           1                     1   78           1
 -4  ENER        1    1
 -5  ENER        1    1    0    0
 -1       100 1.19066E-02
 -3
    1PSTEP                        79          79           1          
  100CL  179 2.61933E-06           1                     1   79           1
 -4  ENER        1    1
 -5  ENER        1    1    0    0
 -1       100 9.53665E-03
 -3
    1PSTEP                        80          80           1          
  100CL  180 2.65249E-06           1                     1   80           1
 -4  ENER        1    1
 -5  ENER        1    1    0    0
 -1       100 7.59979E-03
 -3
    1PSTEP                        81          81           1          
  100CL  181 2.68564E-06           1                     1   81           1
 -4  ENER        1    1
 -5  ENER        1    1    0    0
 -1       100 6.11040E-03
 -3
    1PSTEP                        82          82           1          
  100CL  182 2.71880E-06           1                     1   82           1
 -4  ENER        1    1
 -5  ENER        1    1    0    0
 -1       100 5.10182E-03
 -3
    1PSTEP                        83          83           1          
  100CL  183 2.75196E-06           1                     1   83           1
 -4  ENER        1    1
 -5  ENER        1    1    0    0
 -1       100 4.66916E-03
 -3
    1PSTEP                        84          84           1          
  100CL  184 2.78511E-06           1                     1   84           1
 -4  ENER        1    1
 -5  ENER        1    1    0    0
 -1       100 4.94830E-03
 -3
    1PSTEP                        85          85           1          
  100CL  185 2.81827E-06           1                     1   85           1
 -4  ENER        1    1
 -5  ENER        1    1    0    0
 -1       100 6.00405E-03
 -3
    1PSTEP                        86          86           1          
  100CL  186 2.85142E-06           1                     1   86           1
 -4  ENER        1    1
 -5  ENER        1    1    0    0
 -1       100 7.70538E-03
 -3
    1PSTEP                        87          87           1          
  100CL  187 2.88458E-06           1                     1   87           1
 -4  ENER        1    1
 -5  ENER        1    1    0    0
 -1       100 9.76179E-03
 -3
    1PSTEP                        88          88           1          
  100CL  188 2.91774E-06           1                     1   88           1
 -4  ENER        1    1
 -5  ENER        1    1    0    0
 -1       100 1.19186E-02
 -3
    1PSTEP                        89          89           1          
  100CL  189 2.95089E-06           1                     1   89           1
 -4  ENER        1    1
 -5  ENER        1    1    0    0
 -1       100 1.40696E-02
 -3
    1PSTEP                        90          90           1          
  100CL  190 2.98405E-06           1                     1   90           1
 -4  ENER        1    1
 -5  ENER        1    1    0    0
 -1       100 1.61452E-02
 -3
    1PSTEP                        91          91           1          
  100CL  191 3.01720E-06           1                     1   91           1
 -4  ENER        1    1
 -5  ENER        1    1    0    0