    1C
    1UUSER                                                              
    1UDATE              23.february.2024                                
    1UTIME              17:09:01                                        
    1UHOST                                                              
    1UPGM               CalculiX                                        
    1UVERSION           Version DEVELOPMENT                             
    1UCOMPILETIME       Fri Feb 23 17:06:32 CET 2024                    
    1UDIR                                                               
    1UDBN                                                               
    1UMAT    1STEEL                                                     
    2C                           126                                     1
 -1         5 0.00000E+00-5.68434E-14 0.00000E+00
 -1         6 1.00000E+03-5.68434E-14 0.00000E+00
 -1         7 2.00000E+03-5.68434E-14 0.00000E+00
 -1         8 3.00000E+03-5.68434E-14 0.00000E+00
 -1         9 4.00000E+03-5.68434E-14 0.00000E+00
 -1        10 5.00000E+03-5.68434E-14 0.00000E+00
 -1        11 6.00000E+03-5.68434E-14 0.00000E+00
 -1        12 7.00000E+03-5.68434E-14 0.00000E+00
 -1        13 8.00000E+03-5.68434E-14 0.00000E+00
 -1        14 9.00000E+03-5.68434E-14 0.00000E+00
 -1        15 1.00000E+04-5.68434E-14 0.00000E+00
 -1        16 1.10000E+04-5.68434E-14 0.00000E+00
 -1        17 1.20000E+04-5.68434E-14 0.00000E+00
 -1        18 1.30000E+04-5.68434E-14 0.00000E+00
 -1        19 1.40000E+04-5.68434E-14 0.00000E+00
 -1        20 1.50000E+04-5.68434E-14 0.00000E+00
 -1        21 1.60000E+04-5.68434E-14 0.00000E+00
 -1        22 1.70000E+04-5.68434E-14 0.00000E+00
 -1        23 1.80000E+04-5.68434E-14 0.00000E+00
 -1        24 1.90000E+04-5.68434E-14 0.00000E+00
 -1        25 2.00000E+04-5.68434E-14 0.00000E+00
 -1        26 2.00000E+04 1.00000E+03 0.00000E+00
 -1        48 0.00000E+00 1.00000E+03 0.00000E+00
 -1        49 1.00000E+04 1.00000E+03 0.00000E+00
 -1        50 1.50000E+04 1.00000E+03 0.00000E+00
 -1        51 1.80000E+04 1.00000E+03 0.00000E+00
 -1        52 1.90000E+04 1.00000E+03 0.00000E+00
 -1        53 1.70000E+04 1.00000E+03 0.00000E+00
 -1        54 1.60000E+04 1.00000E+03 0.00000E+00
 -1        55 1.30000E+04 1.00000E+03 0.00000E+00
 -1        56 1.40000E+04 1.00000E+03 0.00000E+00
 -1        57 1.20000E+04 1.00000E+03 0.00000E+00
 -1        58 1.10000E+04 1.00000E+03 0.00000E+00
 -1        59 5.00000E+03 1.00000E+03 0.00000E+00
 -1        60 8.00000E+03 1.00000E+03 0.00000E+00
 -1        61 9.00000E+03 1.00000E+03 0.00000E+00
 -1        62 7.00000E+03 1.00000E+03 0.00000E+00
 -1        63 6.00000E+03 1.00000E+03 0.00000E+00
 -1        64 3.00000E+03 1.00000E+03 0.00000E+00
 -1        65 4.00000E+03 1.00000E+03 0.00000E+00
 -1        66 2.00000E+03 1.00000E+03 0.00000E+00
 -1        67 1.00000E+03 1.00000E+03 0.00000E+00
 -1        70 1.90000E+04 1.00000E+03 1.00000E+03
 -1        71 2.00000E+04 1.00000E+03 1.00000E+03
 -1        72 1.90000E+04-5.68434E-14 1.00000E+03
 -1        73 2.00000E+04-5.68434E-14 1.00000E+03
 -1        75 1.80000E+04 1.00000E+03 1.00000E+03
 -1        76 1.80000E+04-5.68434E-14 1.00000E+03
 -1        78 1.70000E+04 1.00000E+03 1.00000E+03
 -1        79 1.70000E+04-5.68434E-14 1.00000E+03
 -1        81 1.60000E+04 1.00000E+03 1.00000E+03
 -1        82 1.60000E+04-5.68434E-14 1.00000E+03
 -1        84 1.50000E+04 1.00000E+03 1.00000E+03
 -1        85 1.50000E+04-5.68434E-14 1.00000E+03
 -1        86 1.30000E+04 1.00000E+03 1.00000E+03
 -1        87 1.40000E+04 1.00000E+03 1.00000E+03
 -1        90 1.30000E+04-5.68434E-14 1.00000E+03
 -1        91 1.40000E+04-5.68434E-14 1.00000E+03
 -1        93 1.20000E+04 1.00000E+03 1.00000E+03
 -1        94 1.20000E+04-5.68434E-14 1.00000E+03
 -1        95 1.00000E+04 1.00000E+03 1.00000E+03
 -1        96 1.10000E+04 1.00000E+03 1.00000E+03
 -1        99 1.00000E+04-5.68434E-14 1.00000E+03
 -1       100 1.10000E+04-5.68434E-14 1.00000E+03
 -1       101 8.00000E+03 1.00000E+03 1.00000E+03
 -1       102 9.00000E+03 1.00000E+03 1.00000E+03
 -1       105 8.00000E+03-5.68434E-14 1.00000E+03
 -1       106 9.00000E+03-5.68434E-14 1.00000E+03
 -1       108 7.00000E+03 1.00000E+03 1.00000E+03
 -1       109 7.00000E+03-5.68434E-14 1.00000E+03
 -1       110 5.00000E+03 1.00000E+03 1.00000E+03
 -1       111 6.00000E+03 1.00000E+03 1.00000E+03
 -1       114 5.00000E+03-5.68434E-14 1.00000E+03
 -1       115 6.00000E+03-5.68434E-14 1.00000E+03
 -1       116 3.00000E+03 1.00000E+03 1.00000E+03
 -1       117 4.00000E+03 1.00000E+03 1.00000E+03
 -1       120 3.00000E+03-5.68434E-14 1.00000E+03
 -1       121 4.00000E+03-5.68434E-14 1.00000E+03
 -1       123 2.00000E+03 1.00000E+03 1.00000E+03
 -1       124 2.00000E+03-5.68434E-14 1.00000E+03
 -1       126 1.00000E+03 1.00000E+03 1.00000E+03
 -1       127 1.00000E+03-5.68434E-14 1.00000E+03
 -1       129 0.00000E+00 1.00000E+03 1.00000E+03
 -1       130 0.00000E+00-5.68434E-14 1.00000E+03
 -1       133 1.90000E+04 1.00000E+03 2.00000E+03
 -1       134 2.00000E+04 1.00000E+03 2.00000E+03
 -1       135 1.90000E+04-5.68434E-14 2.00000E+03
 -1       136 2.00000E+04-5.68434E-14 2.00000E+03
 -1       138 1.80000E+04 1.00000E+03 2.00000E+03
 -1       139 1.80000E+04-5.68434E-14 2.00000E+03
 -1       141 1.70000E+04 1.00000E+03 2.00000E+03
 -1       142 1.70000E+04-5.68434E-14 2.00000E+03
 -1       144 1.60000E+04 1.00000E+03 2.00000E+03
 -1       145 1.60000E+04-5.68434E-14 2.00000E+03
 -1       147 1.50000E+04 1.00000E+03 2.00000E+03
 -1       148 1.50000E+04-5.68434E-14 2.00000E+03
 -1       149 1.30000E+04 1.00000E+03 2.00000E+03
 -1       150 1.40000E+04 1.00000E+03 2.00000E+03
 -1       153 1.30000E+04-5.68434E-14 2.00000E+03
 -1       154 1.40000E+04-5.68434E-14 2.00000E+03
 -1       156 1.20000E+04 1.00000E+03 2.00000E+03
 -1       157 1.20000E+04-5.68434E-14 2.00000E+03
 -1       158 1.00000E+04 1.00000E+03 2.00000E+03
 -1       159 1.10000E+04 1.00000E+03 2.00000E+03
 -1       162 1.00000E+04-5.68434E-14 2.00000E+03
 -1       163 1.10000E+04-5.68434E-14 2.00000E+03
 -1       164 8.00000E+03 1.00000E+03 2.00000E+03
 -1       165 9.00000E+03 1.00000E+03 2.00000E+03
 -1       168 8.00000E+03-5.68434E-14 2.00000E+03
 -1       169 9.00000E+03-5.68434E-14 2.00000E+03
 -1       171 7.00000E+03 1.00000E+03 2.00000E+03
 -1       172 7.00000E+03-5.68434E-14 2.00000E+03
 -1       173 5.00000E+03 1.00000E+03 2.00000E+03
 -1       174 6.00000E+03 1.00000E+03 2.00000E+03
 -1       177 5.00000E+03-5.68434E-14 2.00000E+03
 -1       178 6.00000E+03-5.68434E-14 2.00000E+03
 -1       179 3.00000E+03 1.00000E+03 2.00000E+03
 -1       180 4.00000E+03 1.00000E+03 2.00000E+03
 -1       183 3.00000E+03-5.68434E-14 2.00000E+03
 -1       184 4.00000E+03-5.68434E-14 2.00000E+03
 -1       186 2.00000E+03 1.00000E+03 2.00000E+03
 -1       187 2.00000E+03-5.68434E-14 2.00000E+03
 -1       189 1.00000E+03 1.00000E+03 2.00000E+03
 -1       190 1.00000E+03-5.68434E-14 2.00000E+03
 -1       192 0.00000E+00 1.00000E+03 2.00000E+03
 -1       193 0.00000E+00-5.68434E-14 2.00000E+03
 -3
    3C                            40                                     1
 -1        42    1    0    1
 -2        26        52        24        25        71        70        72        73
 -1        44    1    0    1
 -2        52        51        23        24        70        75        76        72
 -1        46    1    0    1
 -2        51        53        22        23        75        78        79        76
 -1        48    1    0    1
 -2        53        54        21        22        78        81        82        79
 -1        50    1    0    1
 -2        54        50        20        21        81        84        85        82
 -1        53    1    0    1
 -2        18        19        56        55        90        91        87        86
 -1        54    1    0    1
 -2        19        20        50        56        91        85        84        87
 -1        56    1    0    1
 -2        55        57        17        18        86        93        94        90
 -1        59    1    0    1
 -2        15        16        58        49        99       100        96        95
 -1        60    1    0    1
 -2        16        17        57        58       100        94        93        96
 -1        63    1    0    1
 -2        13        14        61        60       105       106       102       101
 -1        64    1    0    1
 -2        14        15        49        61       106        99        95       102
 -1        66    1    0    1
 -2        60        62        12        13       101       108       109       105
 -1        69    1    0    1
 -2        10        11        63        59       114       115       111       110
 -1        70    1    0    1
 -2        11        12        62        63       115       109       108       111
 -1        73    1    0    1
 -2         8         9        65        64       120       121       117       116
 -1        74    1    0    1
 -2         9        10        59        65       121       114       110       117
 -1        76    1    0    1
 -2        64        66         7         8       116       123       124       120
 -1        78    1    0    1
 -2        66        67         6         7       123       126       127       124
 -1        80    1    0    1
 -2        67        48         5         6       126       129       130       127
 -1        82    1    0    1
 -2        71        70        72        73       134       133       135       136
 -1        84    1    0    1
 -2        70        75        76        72       133       138       139       135
 -1        86    1    0    1
 -2        75        78        79        76       138       141       142       139
 -1        88    1    0    1
 -2        78        81        82        79       141       144       145       142
 -1        90    1    0    1
 -2        81        84        85        82       144       147       148       145
 -1        93    1    0    1
 -2        90        91        87        86       153       154       150       149
 -1        94    1    0    1
 -2        91        85        84        87       154       148       147       150
 -1        96    1    0    1
 -2        86        93        94        90       149       156       157       153
 -1        99    1    0    1
 -2        99       100        96        95       162       163       159       158
 -1       100    1    0    1
 -2       100        94        93        96       163       157       156       159
 -1       103    1    0    1
 -2       105       106       102       101       168       169       165       164
 -1       104    1    0    1
 -2       106        99        95       102       169       162       158       165
 -1       106    1    0    1
 -2       101       108       109       105       164       171       172       168
 -1       109    1    0    1
 -2       114       115       111       110       177       178       174       173
 -1       110    1    0    1
 -2       115       109       108       111       178       172       171       174
 -1       113    1    0    1
 -2       120       121       117       116       183       184       180       179
 -1       114    1    0    1
 -2       121       114       110       117       184       177       173       180
 -1       116    1    0    1
 -2       116       123       124       120       179       186       187       183
 -1       118    1    0    1
 -2       123       126       127       124       186       189       190       187
 -1       120    1    0    1
 -2       126       129       130       127       189       192       193       190
 -3
    1PSTEP                         1           1           1          
  100CL  101 1.000000000         126                     0    1           1
 -4  DISP        4    1
 -5  D1          1    2    1    0
 -5  D2          1    2    2    0
 -5  D3          1    2    3    0
 -5  ALL         1    2    0    0    1ALL
 -1         5 0.00000E+00 0.00000E+00-2.18866E-02
 -1         6-8.04762E-01-1.75547E-14-4.42399E-01
 -1         7-1.56825E+00-3.17607E-13-1.66206E+00
 -1         8-2.29048E+00-9.12377E-13-3.62200E+00
 -1         9-2.97143E+00-1.78794E-12-6.28397E+00
 -1        10-3.61111E+00-2.93151E-12-9.60618E+00
 -1        11-4.20952E+00-4.31744E-12-1.35475E+01
 -1        12-4.76667E+00-5.91938E-12-1.80665E+01
 -1        13-5.28254E+00-7.71933E-12-2.31221E+01
 -1        14-5.75714E+00-9.68867E-12-2.86728E+01
 -1        15-6.19048E+00-1.17758E-11-3.46776E+01
 -1        16-6.58254E+00-1.39346E-11-4.10951E+01
 -1        17-6.93333E+00-1.60671E-11-4.78840E+01
 -1        18-7.24286E+00-1.82369E-11-5.50030E+01
 -1        19-7.51111E+00-2.04179E-11-6.24109E+01
 -1        20-7.73810E+00-2.26597E-11-7.00665E+01
 -1        21-7.92381E+00-2.49925E-11-7.79284E+01
 -1        22-8.06825E+00-2.73834E-11-8.59554E+01
 -1        23-8.17143E+00-2.97862E-11-9.41059E+01
 -1        24-8.23333E+00-3.21378E-11-1.02341E+02
 -1        25-8.25397E+00-3.45534E-11-1.10603E+02
 -1        26-8.25397E+00-3.45421E-11-1.10603E+02
 -1        48 0.00000E+00 0.00000E+00-2.18866E-02
 -1        49-6.19048E+00-1.17764E-11-3.46776E+01
 -1        50-7.73810E+00-2.26530E-11-7.00665E+01
 -1        51-8.17143E+00-2.97735E-11-9.41059E+01
 -1        52-8.23333E+00-3.21399E-11-1.02341E+02
 -1        53-8.06825E+00-2.73896E-11-8.59554E+01
 -1        54-7.92381E+00-2.49911E-11-7.79284E+01
 -1        55-7.24286E+00-1.82281E-11-5.50030E+01
 -1        56-7.51111E+00-2.04257E-11-6.24109E+01
 -1        57-6.93333E+00-1.60791E-11-4.78840E+01
 -1        58-6.58254E+00-1.39319E-11-4.10951E+01
 -1        59-3.61111E+00-2.93238E-12-9.60618E+00
 -1        60-5.28254E+00-7.71916E-12-2.31221E+01
 -1        61-5.75714E+00-9.69624E-12-2.86728E+01
 -1        62-4.76667E+00-5.92171E-12-1.80665E+01
 -1        63-4.20952E+00-4.31793E-12-1.35475E+01
 -1        64-2.29048E+00-9.11697E-13-3.62200E+00
 -1        65-2.97143E+00-1.78803E-12-6.28397E+00
 -1        66-1.56825E+00-3.17857E-13-1.66206E+00
 -1        67-8.04762E-01-1.74652E-14-4.42399E-01
 -1        70 9.62854E-13-3.54938E-11-1.02338E+02
 -1        71 9.67670E-13-3.79810E-11-1.10625E+02
 -1        72-1.53119E-12-3.54934E-11-1.02338E+02
 -1        73-1.53580E-12-3.79643E-11-1.10625E+02
 -1        75 9.59653E-13-3.30185E-11-9.41065E+01
 -1        76-1.52129E-12-3.30142E-11-9.41065E+01
 -1        78 9.69923E-13-3.05089E-11-8.59553E+01
 -1        79-1.52183E-12-3.05150E-11-8.59553E+01
 -1        81 9.70256E-13-2.80517E-11-7.79284E+01
 -1        82-1.50199E-12-2.80536E-11-7.79284E+01
 -1        84 9.70289E-13-2.55946E-11-7.00665E+01
 -1        85-1.48654E-12-2.55966E-11-7.00665E+01
 -1        86 9.79321E-13-2.07252E-11-5.50030E+01
 -1        87 9.73834E-13-2.31355E-11-6.24109E+01
 -1        90-1.42861E-12-2.07189E-11-5.50030E+01
 -1        91-1.45803E-12-2.31339E-11-6.24109E+01
 -1        93 9.85337E-13-1.83277E-11-4.78840E+01
 -1        94-1.40574E-12-1.83342E-11-4.78840E+01
 -1        95 9.80993E-13-1.35841E-11-3.46776E+01
 -1        96 9.90649E-13-1.59402E-11-4.10951E+01
 -1        99-1.34359E-12-1.35811E-11-3.46776E+01
 -1       100-1.38078E-12-1.59384E-11-4.10951E+01
 -1       101 8.92342E-13-9.13439E-12-2.31221E+01
 -1       102 9.49865E-13-1.12921E-11-2.86728E+01
 -1       105-1.18306E-12-9.13267E-12-2.31221E+01
 -1       106-1.27626E-12-1.12956E-11-2.86728E+01
 -1       108 8.16945E-13-7.13825E-12-1.80665E+01
 -1       109-1.07144E-12-7.14045E-12-1.80665E+01
 -1       110 6.28946E-13-3.79227E-12-9.60618E+00
 -1       111 7.28171E-13-5.35413E-12-1.35475E+01
 -1       114-8.10611E-13-3.79221E-12-9.60618E+00
 -1       115-9.46772E-13-5.35461E-12-1.35475E+01
 -1       116 4.03021E-13-1.42004E-12-3.62211E+00
 -1       117 5.19893E-13-2.47453E-12-6.28395E+00
 -1       120-5.12557E-13-1.42006E-12-3.62211E+00
 -1       121-6.66231E-13-2.47452E-12-6.28395E+00
 -1       123 2.77094E-13-6.44356E-13-1.66141E+00
 -1       124-3.49729E-13-6.44246E-13-1.66141E+00
 -1       126 1.43051E-13-1.65530E-13-4.46154E-01
 -1       127-1.79200E-13-1.65515E-13-4.46154E-01
 -1       129 0.00000E+00 0.00000E+00 0.00000E+00
 -1       130 0.00000E+00 0.00000E+00 0.00000E+00
 -1       133 8.23333E+00-3.88508E-11-1.02341E+02
 -1       134 8.25397E+00-4.14353E-11-1.10603E+02
 -1       135 8.23333E+00-3.88536E-11-1.02341E+02
 -1       136 8.25397E+00-4.14424E-11-1.10603E+02
 -1       138 8.17143E+00-3.62519E-11-9.41059E+01
 -1       139 8.17143E+00-3.62421E-11-9.41059E+01
 -1       141 8.06825E+00-3.36904E-11-8.59554E+01
 -1       142 8.06825E+00-3.36890E-11-8.59554E+01
 -1       144 7.92381E+00-3.10987E-11-7.79284E+01
 -1       145 7.92381E+00-3.10942E-11-7.79284E+01
 -1       147 7.73810E+00-2.84842E-11-7.00665E+01
 -1       148 7.73810E+00-2.84784E-11-7.00665E+01
 -1       149 7.24286E+00-2.32231E-11-5.50030E+01
 -1       150 7.51111E+00-2.58922E-11-6.24109E+01
 -1       153 7.24286E+00-2.32211E-11-5.50030E+01
 -1       154 7.51111E+00-2.58936E-11-6.24109E+01
 -1       156 6.93333E+00-2.05668E-11-4.78840E+01
 -1       157 6.93333E+00-2.05702E-11-4.78840E+01
 -1       158 6.19048E+00-1.53739E-11-3.46776E+01
 -1       159 6.58254E+00-1.79613E-11-4.10951E+01
 -1       162 6.19048E+00-1.53736E-11-3.46776E+01
 -1       163 6.58254E+00-1.79634E-11-4.10951E+01
 -1       164 5.28254E+00-1.05296E-11-2.31221E+01
 -1       165 5.75714E+00-1.28854E-11-2.86728E+01
 -1       168 5.28254E+00-1.05300E-11-2.31221E+01
 -1       169 5.75714E+00-1.28804E-11-2.86728E+01
 -1       171 4.76667E+00-8.35865E-12-1.80665E+01
 -1       172 4.76667E+00-8.35913E-12-1.80665E+01
 -1       173 3.61111E+00-4.65283E-12-9.60618E+00
 -1       174 4.20952E+00-6.38908E-12-1.35475E+01
 -1       177 3.61111E+00-4.65222E-12-9.60618E+00
 -1       178 4.20952E+00-6.38928E-12-1.35475E+01
 -1       179 2.29048E+00-1.92606E-12-3.62200E+00
 -1       180 2.97143E+00-3.16058E-12-6.28397E+00
 -1       183 2.29048E+00-1.92583E-12-3.62200E+00
 -1       184 2.97143E+00-3.16040E-12-6.28397E+00
 -1       186 1.56825E+00-9.71220E-13-1.66206E+00
 -1       187 1.56825E+00-9.71290E-13-1.66206E+00
 -1       189 8.04762E-01-3.13298E-13-4.42399E-01
 -1       190 8.04762E-01-3.13364E-13-4.42399E-01
 -1       192 0.00000E+00 0.00000E+00-2.18866E-02
 -1       193 0.00000E+00 0.00000E+00-2.18866E-02
 -3
    1PSTEP                         2           1           1          
  100CL  101 1.000000000         126                     0    1           1
 -4  STRESS      6    1
 -5  SXX         1    4    1    1
 -5  SYY         1    4    2    2
 -5  SZZ         1    4    3    3
 -5  SXY         1    4    1    2
 -5  SYZ         1    4    2    3
 -5  SZX         1    4    3    1
 -1         5-1.68996E+02-9.34254E-20 4.59610E+00-1.84945E-12 4.50774E-12-4.41534E+01
 -1         6-1.64663E+02 1.87966E-14-7.88604E-01 6.32275E-12 2.60725E-13-1.60894E+00
 -1         7-1.55996E+02-5.24576E-14 1.35303E-01 7.38803E-12 4.26945E-14-2.26221E+00
 -1         8-1.47330E+02 1.42769E-13-2.32143E-02 7.42947E-12 2.61572E-13-2.15013E+00
 -1         9-1.38663E+02-2.03599E-14 3.98295E-03 7.54648E-12-2.42493E-13-2.16936E+00
 -1        10-1.29997E+02-1.82539E-13-6.83366E-04 7.53475E-12-6.22006E-14-2.16606E+00
 -1        11-1.21331E+02-1.04915E-13 1.17247E-04 7.64688E-12 1.47826E-13-2.16663E+00
 -1        12-1.12664E+02-4.89602E-13-2.01159E-05 7.76653E-12-8.45577E-13-2.16653E+00
 -1        13-1.03998E+02 3.69996E-14 3.44844E-06 8.08951E-12 1.78770E-12-2.16655E+00
 -1        14-9.53311E+01-1.58979E-12-5.74744E-07 8.32285E-12-4.98534E-13-2.16654E+00
 -1        15-8.66647E+01-1.15368E-13 4.83180E-12 7.59310E-12 6.72792E-13-2.16654E+00
 -1        16-7.79982E+01 5.79585E-13 5.74739E-07 1.01000E-11-2.16407E-12-2.16654E+00
 -1        17-6.93317E+01-2.51795E-12-3.44844E-06 1.06772E-11 5.75187E-13-2.16655E+00
 -1        18-6.06653E+01 1.83014E-12 2.01159E-05 1.03872E-11 1.15000E-12-2.16653E+00
 -1        19-5.19988E+01-1.63200E-12-1.17247E-04 8.83392E-12-1.42650E-12-2.16663E+00
 -1        20-4.33323E+01 1.39886E-12 6.83366E-04 6.01225E-12 5.53913E-14-2.16606E+00
 -1        21-3.46659E+01 3.06407E-13-3.98295E-03 5.13972E-12 5.95675E-13-2.16936E+00
 -1        22-2.59994E+01-1.29831E-12 2.32143E-02 6.52394E-13 2.90802E-12-2.15013E+00
 -1        23-1.73329E+01 2.65767E-12-1.35303E-01 6.81239E-12-5.45620E-12-2.26221E+00
 -1        24-8.66647E+00-4.29938E-13 7.88604E-01 3.55213E-13 3.94136E-12-1.60894E+00
 -1        25-4.33323E+00 2.36225E-12-4.59610E+00 8.71216E-13 3.17592E-12-8.20358E-01
 -1        26-4.33323E+00 2.36225E-12-4.59610E+00 2.22919E-12 9.60410E-13-8.20358E-01
 -1        48-1.68996E+02-9.34254E-20 4.59610E+00-1.84006E-12 4.50774E-12-4.41534E+01
 -1        49-8.66647E+01-1.15368E-13-4.01440E-12 8.06745E-12 7.40321E-13-2.16654E+00
 -1        50-4.33323E+01 1.39886E-12 6.83366E-04 6.64175E-12-9.72118E-14-2.16606E+00
 -1        51-1.73329E+01 2.65767E-12-1.35303E-01 7.08154E-12-5.49942E-12-2.26221E+00
 -1        52-8.66647E+00-4.29938E-13 7.88604E-01 3.33414E-13 2.23770E-12-1.60894E+00
 -1        53-2.59994E+01-1.29831E-12 2.32143E-02 1.30935E-12 5.46298E-12-2.15013E+00
 -1        54-3.46659E+01 3.06407E-13-3.98295E-03 4.46363E-12 1.14105E-12-2.16936E+00
 -1        55-6.06653E+01 1.83014E-12 2.01159E-05 1.09996E-11-2.64136E-12-2.16653E+00
 -1        56-5.19988E+01-1.63200E-12-1.17247E-04 8.87094E-12-4.30235E-13-2.16663E+00
 -1        57-6.93317E+01-2.51795E-12-3.44844E-06 1.10016E-11 3.46267E-12-2.16655E+00
 -1        58-7.79982E+01 5.79585E-13 5.74739E-07 9.65397E-12-2.74062E-12-2.16654E+00
 -1        59-1.29997E+02-1.82539E-13-6.83366E-04 7.49308E-12 2.46082E-13-2.16606E+00
 -1        60-1.03998E+02 3.69996E-14 3.44844E-06 7.79802E-12 1.62024E-12-2.16655E+00
 -1        61-9.53311E+01-1.58979E-12-5.74737E-07 8.30183E-12 3.06810E-13-2.16654E+00
 -1        62-1.12664E+02-4.89602E-13-2.01159E-05 7.73582E-12 1.84755E-13-2.16653E+00
 -1        63-1.21331E+02-1.04915E-13 1.17247E-04 7.52815E-12-1.42025E-13-2.16663E+00
 -1        64-1.47330E+02 1.42769E-13-2.32143E-02 7.43487E-12 3.06260E-14-2.15013E+00
 -1        65-1.38663E+02-2.03599E-14 3.98295E-03 7.49786E-12-2.38764E-13-2.16936E+00
 -1        66-1.55996E+02-5.24576E-14 1.35303E-01 7.41898E-12 3.49305E-14-2.26221E+00
 -1        67-1.64663E+02 1.87966E-14-7.88604E-01 6.30044E-12 2.63728E-13-1.60894E+00
 -1        70 8.64059E-13-8.96116E-14 7.05813E-12 1.34297E-12 1.12525E-11-2.72415E+00
 -1        71 9.90208E-13-3.48842E-12 1.19762E-11 1.71609E-12-7.27551E-12-3.51273E+00
 -1        72-1.51151E-12-8.96116E-14-1.22721E-12 1.99781E-12 1.01199E-11-2.72415E+00
 -1        73-9.60676E-13-3.48842E-12-4.39337E-12 3.41021E-12-6.60798E-12-3.51273E+00
 -1        75-6.95138E-13-9.03202E-13-6.06739E-12-1.21927E-12-1.63166E-12-2.07087E+00
 -1        76-9.85989E-13-9.03202E-13 3.01136E-12-8.74381E-13 1.19938E-13-2.07087E+00
 -1        78-1.10928E-12 1.28078E-12 3.10112E-12 8.45139E-13-9.86447E-12-2.18296E+00
 -1        79-2.02660E-12 1.28078E-12-3.06502E-12 1.18011E-12-1.05327E-11-2.18296E+00
 -1        81-5.05707E-14 4.12032E-13 4.28978E-12 1.59639E-12 5.56610E-12-2.16373E+00
 -1        82-3.66529E-12 4.12032E-13-4.98268E-12 1.37765E-12 5.42457E-12-2.16373E+00
 -1        84-3.82805E-13 4.19661E-13-4.70313E-12-1.47410E-13-4.46925E-12-2.16703E+00
 -1        85-4.56990E-12 4.19661E-13 4.49604E-12-3.19114E-13-4.49972E-12-2.16703E+00
 -1        86-1.14320E-12-1.32189E-12 3.38954E-12 3.96258E-13-1.08264E-12-2.16656E+00
 -1        87-9.09051E-13-3.39495E-13 8.44537E-13-2.62985E-13 4.66260E-12-2.16646E+00
 -1        90-5.55556E-12-1.32189E-12 9.03929E-13 8.76130E-13-1.06317E-12-2.16656E+00
 -1        91-6.09363E-12-3.39495E-13 3.15156E-13-7.26281E-13 4.70310E-12-2.16646E+00
 -1        93-1.22080E-12 1.35394E-12 4.34716E-12-1.30482E-13-1.54445E-12-2.16654E+00
 -1        94-5.03952E-12 1.35394E-12-3.00294E-12 6.39006E-14-2.34973E-12-2.16654E+00
 -1        95 4.21840E-12-6.42973E-13-6.26411E-13 1.43942E-14-9.09970E-13-2.16654E+00
 -1        96 3.37952E-13-3.90395E-13 2.25876E-13-6.22518E-15-1.62546E-12-2.16654E+00
 -1        99-1.09165E-11-6.42973E-13 1.70115E-12 3.48870E-13-1.74472E-13-2.16654E+00
 -1       100-6.46139E-12-3.90395E-13-6.83163E-13-4.79931E-13-2.33483E-12-2.16654E+00
 -1       101 1.39644E-11-3.59900E-13-2.92955E-12-1.52119E-13-7.64784E-13-2.16654E+00
 -1       102 9.31033E-12 7.49025E-13 2.18183E-12 1.40484E-13-6.25462E-13-2.16654E+00
 -1       105-2.15243E-11-3.59900E-13 2.40386E-12-2.33428E-13-7.47468E-13-2.16654E+00
 -1       106-1.68424E-11 7.49025E-13-3.26486E-12 2.15752E-13-1.10155E-12-2.16654E+00
 -1       108 1.72413E-11 4.62162E-13-3.57667E-13-2.05878E-13 2.90466E-13-2.16656E+00
 -1       109-2.48210E-11 4.62162E-13 5.62372E-13-7.23694E-14 3.37683E-13-2.16656E+00
 -1       110 2.18776E-11-1.29681E-14 7.05094E-13-2.89641E-14-8.44482E-13-2.16703E+00
 -1       111 1.97389E-11 1.00543E-13-1.92573E-13 2.50891E-13 5.56829E-14-2.16646E+00
 -1       114-2.94567E-11-1.29681E-14-2.85809E-13-4.74785E-14-9.14943E-13-2.16703E+00
 -1       115-2.73783E-11 1.00543E-13-6.04482E-13 1.25286E-13-2.89121E-13-2.16646E+00
 -1       116 2.54703E-11 4.09284E-15 2.23499E-13 6.42447E-14 8.76164E-14-2.18296E+00
 -1       117 2.37010E-11-2.47642E-15-2.11017E-13-1.10429E-15 8.14455E-14-2.16373E+00
 -1       120-3.32234E-11 4.09284E-15 4.30667E-13 4.66677E-14 2.00029E-14-2.18296E+00
 -1       121-3.12950E-11-2.47642E-15-4.85627E-14 2.20769E-14 1.37126E-13-2.16373E+00
 -1       123 2.72919E-11-2.30491E-14 2.02081E-13-4.49108E-14-1.86521E-13-2.07087E+00
 -1       124-3.49889E-11-2.30491E-14-1.09288E-13-4.65111E-14-2.07712E-13-2.07087E+00
 -1       126 2.90972E-11-3.12178E-15 1.85407E-14 1.78319E-15 1.15244E-12-2.72415E+00
 -1       127-3.67288E-11-3.12178E-15-7.68829E-15 7.38041E-15 1.15530E-12-2.72415E+00
 -1       129 3.00666E-11-1.45861E-19-1.33227E-15-1.73815E-11-3.11689E-15-4.68458E+01
 -1       130-3.76446E-11-1.45861E-19-2.22045E-14-1.73799E-11-3.11689E-15-4.68458E+01
 -1       133 8.66647E+00 5.82285E-13-7.88604E-01-4.34266E-12-2.12421E-12-1.60894E+00
 -1       134 4.33323E+00 1.49214E-12 4.59610E+00-4.35142E-12 1.06316E-11-8.20358E-01
 -1       135 8.66647E+00 5.82285E-13-7.88604E-01-5.24027E-12-2.08410E-12-1.60894E+00
 -1       136 4.33323E+00 1.49214E-12 4.59610E+00-4.80502E-12 7.95112E-12-8.20358E-01
 -1       138 1.73329E+01-2.05166E-12 1.35303E-01-3.80471E-12-6.58927E-12-2.26221E+00
 -1       139 1.73329E+01-2.05166E-12 1.35303E-01-3.98935E-12-6.45164E-12-2.26221E+00
 -1       141 2.59994E+01-2.96242E-13-2.32143E-02-3.99653E-12 9.22759E-12-2.15013E+00
 -1       142 2.59994E+01-2.96242E-13-2.32143E-02-3.71776E-12 1.07308E-11-2.15013E+00
 -1       144 3.46659E+01-9.26750E-13 3.98295E-03-7.11998E-12-2.81840E-12-2.16936E+00
 -1       145 3.46659E+01-9.26750E-13 3.98295E-03-7.21038E-12-7.79724E-13-2.16936E+00
 -1       147 4.33323E+01-1.20445E-12-6.83366E-04-7.13576E-12-2.18810E-12-2.16606E+00
 -1       148 4.33323E+01-1.20445E-12-6.83366E-04-6.83639E-12-2.85476E-12-2.16606E+00
 -1       149 6.06653E+01-4.06840E-13-2.01159E-05-1.10170E-11 4.15147E-13-2.16653E+00
 -1       150 5.19988E+01 3.01713E-13 1.17247E-04-7.44655E-12 4.84848E-12-2.16663E+00
 -1       153 6.06653E+01-4.06840E-13-2.01159E-05-1.09463E-11 3.46685E-13-2.16653E+00
 -1       154 5.19988E+01 3.01713E-13 1.17247E-04-6.93669E-12 3.18464E-12-2.16663E+00
 -1       156 6.93317E+01 7.08181E-13 3.44845E-06-1.12940E-11-1.02396E-12-2.16655E+00
 -1       157 6.93317E+01 7.08181E-13 3.44844E-06-1.09434E-11-1.13801E-13-2.16655E+00
 -1       158 8.66647E+01-5.50266E-14 6.53593E-13-8.18395E-12-6.68356E-13-2.16654E+00
 -1       159 7.79982E+01 4.36593E-13-5.74736E-07-9.95728E-12 2.05089E-12-2.16654E+00
 -1       162 8.66647E+01-5.50266E-14-1.71960E-12-8.77074E-12-2.27741E-12-2.16654E+00
 -1       163 7.79982E+01 4.36593E-13-5.74740E-07-1.00480E-11 2.83733E-12-2.16654E+00
 -1       164 1.03998E+02 6.95229E-14-3.44844E-06-7.19797E-12-2.87639E-13-2.16655E+00
 -1       165 9.53311E+01-1.04914E-12 5.74741E-07-8.88237E-12-1.30280E-12-2.16654E+00
 -1       168 1.03998E+02 6.95229E-14-3.44844E-06-6.88528E-12-6.95467E-13-2.16655E+00
 -1       169 9.53311E+01-1.04914E-12 5.74739E-07-8.87742E-12 5.09086E-13-2.16654E+00
 -1       171 1.12664E+02 1.00365E-13 2.01159E-05-7.71175E-12 1.88962E-13-2.16653E+00
 -1       172 1.12664E+02 1.00365E-13 2.01159E-05-7.79480E-12 5.08920E-13-2.16653E+00
 -1       173 1.29997E+02-1.28229E-13 6.83366E-04-7.73950E-12-6.39600E-13-2.16606E+00
 -1       174 1.21331E+02 4.15257E-14-1.17247E-04-7.77144E-12 5.48148E-13-2.16663E+00
 -1       177 1.29997E+02-1.28229E-13 6.83366E-04-7.75532E-12-4.65823E-13-2.16606E+00
 -1       178 1.21331E+02 4.15257E-14-1.17247E-04-7.78152E-12 6.82928E-13-2.16663E+00
 -1       179 1.47330E+02-4.78371E-14 2.32143E-02-7.69921E-12-2.78528E-13-2.15013E+00
 -1       180 1.38663E+02-3.74994E-14-3.98295E-03-7.27593E-12 4.71790E-13-2.16936E+00
 -1       183 1.47330E+02-4.78371E-14 2.32143E-02-7.69799E-12-1.65792E-13-2.15013E+00
 -1       184 1.38663E+02-3.74994E-14-3.98295E-03-7.29945E-12 5.06243E-13-2.16936E+00
 -1       186 1.55996E+02 1.46371E-14-1.35303E-01-7.34492E-12 1.49633E-13-2.26221E+00
 -1       187 1.55996E+02 1.46371E-14-1.35303E-01-7.35923E-12 1.11567E-13-2.26221E+00
 -1       189 1.64663E+02 1.38412E-14 7.88604E-01-6.30292E-12 1.85054E-13-1.60894E+00
 -1       190 1.64663E+02 1.38412E-14 7.88604E-01-6.29861E-12 1.70455E-13-1.60894E+00
 -1       192 1.68996E+02-6.03905E-20-4.59610E+00-3.28895E-11 4.52603E-12-4.41534E+01
 -1       193 1.68996E+02-6.03905E-20-4.59610E+00-3.28965E-11 4.52603E-12-4.41534E+01
 -3
    1PSTEP                         3           1           1          
  100CL  101 1.000000000         126                     0    1           1
 -4  TOSTRAIN    6    1
 -5  EXX         1    4    1    1
 -5  EYY         1    4    2    2
 -5  EZZ         1    4    3    3
 -5  EXY         1    4    1    2
 -5  EYZ         1    4    2    3
 -5  EZX         1    4    3    1