
                        S T E P       1


                                INCREMENT     1


 displacements (vx,vy,vz) for set NALL and time  0.1000000E+01

         1  0.000000E+00  0.000000E+00  0.000000E+00
         2  0.000000E+00  0.000000E+00  0.000000E+00
         3  1.225204E-01  8.444103E-02 -1.810290E-02
         4  1.194767E-01  8.480135E-02 -8.275916E-03
         5  0.000000E+00  0.000000E+00  0.000000E+00
         6  1.379249E-01  9.432100E-02 -1.779493E-02
         7  0.000000E+00  0.000000E+00  0.000000E+00
         8  1.351860E-01  9.436169E-02 -8.638363E-03
         9  0.000000E+00  0.000000E+00  0.000000E+00
        10  1.038229E-01  7.635424E-02 -1.282639E-02
        11  9.344619E-02  6.187254E-02 -1.084208E-02
        12  8.223194E-02  4.749607E-02 -8.738950E-03
        13  7.098527E-02  3.495738E-02 -6.890665E-03
        14  5.962695E-02  2.416474E-02 -5.300079E-03
        15  4.837994E-02  1.532895E-02 -3.998986E-03
        16  3.702161E-02  8.275067E-03 -2.961943E-03
        17  2.577590E-02  3.140663E-03 -2.210797E-03
        18  1.477243E-02 -1.033194E-04 -1.744300E-03
        19  6.145472E-03 -1.390683E-03 -1.556369E-03
        20  1.115474E-01  8.692895E-02 -1.317054E-02
        21  1.005984E-01  7.558349E-02 -9.916846E-03
        22  8.995891E-02  6.013462E-02 -7.514767E-03
        23  7.929051E-02  4.636778E-02 -5.484424E-03
        24  6.863753E-02  3.433511E-02 -3.709185E-03
        25  5.798636E-02  2.403652E-02 -2.191152E-03
        26  4.744411E-02  1.555067E-02 -9.415530E-04
        27  3.679323E-02  8.702603E-03  6.541379E-05
        28  2.614219E-02  3.588654E-03  8.155155E-04
        29  1.549424E-02  1.998751E-04  1.311737E-03
        30  5.250076E-03 -1.401801E-03  1.484413E-03
        31  0.000000E+00  0.000000E+00  0.000000E+00
        32  1.206158E-01  7.956255E-02 -1.315009E-02
        33  1.081516E-01  6.462328E-02 -1.104292E-02
        34  9.517365E-02  5.046412E-02 -8.959231E-03
        35  8.222893E-02  3.809806E-02 -7.136802E-03
        36  6.928718E-02  2.753545E-02 -5.580044E-03
        37  5.621642E-02  1.869970E-02 -4.278975E-03
        38  4.327518E-02  1.176604E-02 -3.259572E-03
        39  3.033395E-02  6.638174E-03 -2.508247E-03
        40  1.739799E-02  3.322688E-03 -2.036889E-03
        41  6.938592E-03  1.934675E-03 -1.760194E-03
        42  1.218482E-01  8.947377E-02 -1.567899E-02
        43  0.000000E+00  0.000000E+00  0.000000E+00
        44  1.182125E-01  7.958822E-02 -9.780975E-03
        45  1.058580E-01  6.460549E-02 -7.458640E-03
        46  9.321168E-02  5.045483E-02 -5.376062E-03
        47  8.053770E-02  3.808783E-02 -3.550979E-03
        48  6.786380E-02  2.752521E-02 -1.993978E-03
        49  5.506320E-02  1.868948E-02 -6.928536E-04
        50  4.238932E-02  1.175584E-02  3.266739E-04
        51  2.971638E-02  6.628415E-03  1.078802E-03
        52  1.705516E-02  3.318587E-03  1.559670E-03
        53  6.813356E-03  1.870532E-03  1.733453E-03
        54  1.306067E-01  9.230053E-02 -1.317294E-02
        55  0.000000E+00  0.000000E+00  0.000000E+00
        56  1.187249E-01  8.945801E-02 -1.063915E-02
        57  1.185084E-01  8.995396E-02 -1.316007E-02
        58  0.000000E+00  0.000000E+00  0.000000E+00
        59  9.630583E-03  6.135905E-04 -6.289753E-05
        60  0.000000E+00  0.000000E+00  0.000000E+00
        61  2.399744E-03 -1.152730E-03  4.664904E-04
        62  2.675293E-03 -1.224719E-03  1.198050E-03
        63  0.000000E+00  0.000000E+00  0.000000E+00
        64  3.097430E-03 -1.288164E-03 -1.288661E-03
        65  2.789545E-03 -1.219184E-03 -5.424727E-04
        66  9.857938E-02  6.888143E-02 -1.186689E-02
        67  1.019754E-01  7.608151E-02 -1.132451E-02
        68  9.706767E-02  6.860664E-02 -1.028810E-02
        69  8.784623E-02  5.445235E-02 -9.765426E-03
        70  9.170635E-02  6.106241E-02 -9.175053E-03
        71  8.614758E-02  5.369832E-02 -8.092331E-03
        72  7.660890E-02  4.099600E-02 -7.781197E-03
        73  8.075458E-02  4.699290E-02 -7.102260E-03
        74  7.519866E-02  4.053465E-02 -6.149776E-03
        75  6.530614E-02  2.932620E-02 -6.060707E-03
        76  6.980733E-02  3.470862E-02 -5.290503E-03
        77  6.419631E-02  2.910511E-02 -4.464451E-03
        78  5.400344E-02  1.951660E-02 -4.615443E-03
        79  5.880531E-02  2.416374E-02 -3.736247E-03
        80  5.324931E-02  1.952472E-02 -3.052947E-03
        81  4.270077E-02  1.156719E-02 -3.445651E-03
        82  4.252240E-02  1.187096E-02 -1.926620E-03
        83  3.691141E-02  8.551208E-03 -1.438761E-03
        84  3.139869E-02  5.478056E-03 -2.551813E-03
        85  3.152044E-02  5.803969E-03 -1.035593E-03
        86  2.596423E-02  3.426136E-03 -6.877174E-04
        87  2.027190E-02  1.296277E-03 -1.941501E-03
        88  2.057196E-02  1.558676E-03 -4.147083E-04
        89  1.512485E-02  1.141621E-04 -2.055390E-04
        90  1.031912E-02 -8.412020E-04  1.460492E-03
        91  9.782422E-03 -9.027475E-04 -7.120224E-05
        92  9.526765E-02  6.760674E-02 -8.637998E-03
        93  8.462265E-02  5.303360E-02 -6.467425E-03
        94  7.396379E-02  4.013456E-02 -4.564545E-03
        95  6.331191E-02  2.896904E-02 -2.918048E-03
        96  3.146775E-02  5.928859E-03  4.725633E-04
        97  2.081734E-02  1.680237E-03  1.094843E-03
        98  1.098374E-01  8.230590E-02 -1.349442E-02
        99  1.131266E-01  8.587788E-02 -1.490912E-02
       100  1.072565E-01  8.230515E-02 -1.285280E-02
       101  5.271523E-02  1.958123E-02 -1.534901E-03
       102  4.791336E-02  1.550292E-02 -2.460896E-03
       103  4.211867E-02  1.190987E-02 -4.059685E-04
       104  1.038011E-02 -9.252228E-04 -1.653326E-03
       105  5.480942E-03 -1.345762E-03 -2.106260E-05
       106  1.055256E-01  8.194808E-02 -1.160974E-02
       107  1.114758E-01  8.613988E-02 -1.142613E-02
       108  1.066186E-01  8.200985E-02 -1.100519E-02
       109  0.000000E+00  0.000000E+00  0.000000E+00
       110  2.901390E-03 -5.366801E-04 -1.266484E-03
       111  0.000000E+00  0.000000E+00  0.000000E+00
       112  3.321049E-03  1.443000E-03 -1.446496E-03
       113  3.140202E-03  6.000131E-04 -1.356270E-03
       114  1.143871E-01  7.193659E-02 -1.209482E-02
       115  1.065390E-01  7.057552E-02 -1.203345E-02
       116  1.007985E-01  6.318589E-02 -1.096164E-02
       117  1.016577E-01  5.732011E-02 -9.969448E-03
       118  9.473341E-02  5.578510E-02 -9.874702E-03
       119  8.871374E-02  4.891622E-02 -8.859840E-03
       120  8.870099E-02  4.405585E-02 -8.014999E-03
       121  8.263516E-02  4.243150E-02 -7.903295E-03
       122  7.661572E-02  3.646445E-02 -7.023276E-03
       123  7.575801E-02  3.259112E-02 -6.325047E-03
       124  7.047626E-02  3.084259E-02 -6.194509E-03
       125  6.445700E-02  2.578690E-02 -5.449451E-03
       126  6.275179E-02  2.288735E-02 -4.895424E-03
       127  5.837759E-02  2.113878E-02 -4.764796E-03
       128  4.974580E-02  1.500717E-02 -3.735833E-03
       129  5.229817E-02  1.695113E-02 -4.148327E-03
       130  4.627893E-02  1.325860E-02 -3.605158E-03
       131  3.680458E-02  8.976318E-03 -2.850354E-03
       132  4.013930E-02  9.957264E-03 -3.119980E-03
       133  3.412001E-02  7.176559E-03 -2.711919E-03
       134  2.386540E-02  4.751816E-03 -2.236614E-03
       135  2.804068E-02  4.826297E-03 -2.367242E-03
       136  2.201925E-02  2.953323E-03 -2.094445E-03
       137  1.210726E-02  2.489556E-03 -1.907772E-03
       138  1.605497E-02  1.545122E-03 -1.894026E-03
       139  1.105758E-02  7.111363E-04 -1.802164E-03
       140  1.118600E-01  7.797963E-02 -1.299349E-02
       141  1.205400E-01  8.431634E-02 -1.380282E-02
       142  1.122406E-01  8.293555E-02 -1.347876E-02
       143  1.275124E-01  8.500524E-02 -1.393464E-02
       144  1.265523E-01  9.108515E-02 -1.641475E-02
       145  1.180698E-01  8.770704E-02 -1.665633E-02
       146  6.340566E-03  1.963452E-04 -1.690468E-03
       147  0.000000E+00  0.000000E+00  0.000000E+00
       148  3.255668E-03  1.402029E-03 -6.075457E-04
       149  0.000000E+00  0.000000E+00  0.000000E+00
       150  3.262501E-03  1.407257E-03  1.446172E-03
       151  3.220044E-03  1.383626E-03  6.114540E-04
       152  1.119757E-01  7.194621E-02 -8.546874E-03
       153  1.191535E-01  7.971771E-02 -1.153866E-02
       154  1.130965E-01  7.203929E-02 -1.033727E-02
       155  9.954137E-02  5.731548E-02 -6.383593E-03
       156  1.069849E-01  6.469326E-02 -9.243326E-03
       157  1.005937E-01  5.738638E-02 -8.165123E-03
       158  8.687491E-02  4.404616E-02 -4.429627E-03
       159  9.418946E-02  5.052528E-02 -7.157725E-03
       160  8.778673E-02  4.411498E-02 -6.212811E-03
       161  7.420077E-02  3.258094E-02 -2.739013E-03
       162  8.138284E-02  3.815649E-02 -5.334528E-03
       163  7.497922E-02  3.264933E-02 -4.522657E-03
       164  6.146350E-02  2.287712E-02 -1.309314E-03
       165  6.857542E-02  2.759358E-02 -3.777651E-03
       166  6.210762E-02  2.294545E-02 -3.093006E-03
       167  4.872626E-02  1.499696E-02 -1.496745E-04
       168  5.563980E-02  1.875780E-02 -2.476553E-03
       169  4.923601E-02  1.506527E-02 -1.933383E-03
       170  3.605268E-02  8.966266E-03  7.360660E-04
       171  4.283222E-02  1.182413E-02 -1.457043E-03
       172  3.642839E-02  9.034521E-03 -1.047525E-03
       173  2.338482E-02  4.743859E-03  1.351882E-03
       174  3.002440E-02  6.695991E-03 -7.048465E-04
       175  2.362222E-02  4.809827E-03 -4.289151E-04
       176  1.187868E-02  2.466984E-03  1.698309E-03
       177  1.721091E-02  3.373782E-03 -2.165219E-04
       178  1.190013E-02  2.550506E-03 -9.539563E-05
       179  1.232438E-01  8.511190E-02 -1.148456E-02
       180  1.244465E-01  8.509496E-02 -1.314488E-02
       181  1.249617E-01  8.502944E-02 -1.069903E-02
       182  1.297906E-01  9.318068E-02 -1.171279E-02
       183  1.310468E-01  9.315038E-02 -1.465484E-02
       184  6.692943E-03  1.983958E-03 -2.364663E-05
       185  0.000000E+00  0.000000E+00  0.000000E+00
       186  3.084774E-03  5.502872E-04  1.349582E-03
       187  0.000000E+00  0.000000E+00  0.000000E+00
       188  2.476043E-03 -5.371054E-04  1.170601E-03
       189  1.036108E-01  6.980681E-02 -8.633852E-03
       190  9.788110E-02  6.231352E-02 -7.495517E-03
       191  9.199370E-02  5.504113E-02 -6.425417E-03
       192  8.622343E-02  4.834766E-02 -5.438931E-03
       193  8.033766E-02  4.196523E-02 -4.497343E-03
       194  7.456946E-02  3.614799E-02 -3.639357E-03
       195  6.868390E-02  3.065896E-02 -2.830118E-03
       196  6.291604E-02  2.571759E-02 -2.101909E-03
       197  5.697165E-02  2.107860E-02 -1.418597E-03
       198  5.126268E-02  1.705679E-02 -8.265444E-04
       199  4.549486E-02  1.342484E-02 -2.922682E-04
       200  3.960934E-02  1.016567E-02  1.867495E-04
       201  3.384156E-02  7.409703E-03  5.913125E-04
       202  2.795632E-02  5.044392E-03  9.379282E-04
       203  2.218859E-02  3.163256E-03  1.212992E-03
       204  1.630113E-02  1.690072E-03  1.424884E-03
       205  1.059609E-02  6.875738E-04  1.591773E-03
       206  1.091372E-01  7.751075E-02 -9.872227E-03
       207  1.091649E-01  8.262452E-02 -1.102809E-02
       208  1.177344E-01  8.433967E-02 -1.084345E-02
       209  1.154774E-01  8.778449E-02 -9.572229E-03
       210  1.234724E-01  9.104148E-02 -1.004370E-02
       211  5.820769E-03  1.721263E-04  1.612047E-03
       212  1.171587E-01  8.976691E-02 -1.214681E-02
       213  1.121976E-01  8.807611E-02 -1.178472E-02
       214  1.133027E-01  8.867987E-02 -1.317530E-02
       215  1.137593E-01  8.806083E-02 -1.457946E-02
       216  1.233288E-01  9.088488E-02 -1.316517E-02
       217  1.238531E-01  9.156843E-02 -1.474681E-02
       218  1.225864E-01  9.160901E-02 -1.162732E-02
       219  1.187079E-01  8.976954E-02 -1.416676E-02
       220  0.000000E+00  0.000000E+00  0.000000E+00
       221  0.000000E+00  0.000000E+00  0.000000E+00
       222  0.000000E+00  0.000000E+00  0.000000E+00
       223  0.000000E+00  0.000000E+00  0.000000E+00
       224  0.000000E+00  0.000000E+00  0.000000E+00
       225  0.000000E+00  0.000000E+00  0.000000E+00
       226  0.000000E+00  0.000000E+00  0.000000E+00
       227  0.000000E+00  0.000000E+00  0.000000E+00
       228  5.184062E-02  1.710639E-02 -2.483852E-03
       229  5.761442E-02  2.112819E-02 -3.075902E-03
       230  1.201394E-01  8.439831E-02 -1.294397E-02
       231  2.826906E-02  5.094002E-03 -7.193774E-04
       232  2.243632E-02  3.212584E-03 -4.446334E-04
       233  2.963205E-03  7.833933E-04  6.234730E-04
       234  2.990719E-03  7.901699E-04 -6.315521E-04
       235  3.422148E-02  7.459230E-03 -1.065997E-03
       236  4.005490E-02  1.021527E-02 -1.470575E-03
       237  8.224515E-03  1.279092E-03 -9.262403E-04
       238  1.340559E-02  1.919948E-03 -1.019864E-03
       239  1.232713E-02  1.925096E-04 -9.424233E-04
       240  8.146659E-03  1.264776E-03  8.426340E-04
       241  7.669278E-03 -4.500897E-04 -8.786172E-04
       242  1.047444E-01  6.986315E-02 -1.026460E-02
       243  9.898889E-02  6.236784E-02 -9.155992E-03
       244  7.541200E-02  3.619767E-02 -5.296630E-03
       245  6.945963E-02  3.070857E-02 -4.487399E-03
       246  1.111957E-01  8.313352E-02 -1.284338E-02
       247  1.095578E-01  8.277367E-02 -1.167438E-02
       248  1.189745E-01  8.443612E-02 -1.166054E-02
       249  9.303034E-02  5.509016E-02 -8.082262E-03
       250  2.399329E-03 -4.414059E-04  5.651798E-04
       251  2.806985E-03 -4.470271E-04 -6.087277E-04
       252  1.103097E-01  7.756075E-02 -1.138326E-02
       253  4.600728E-02  1.347444E-02 -1.949570E-03
       254  7.233039E-03 -4.650850E-04  7.826689E-04
       255  4.592383E-03  2.785963E-04 -1.508684E-05
       256  8.719731E-02  4.839767E-02 -7.095898E-03
       257  1.648846E-02  1.742654E-03 -2.314035E-04
       258  6.362632E-02  2.576720E-02 -3.759211E-03
       259  1.274956E-02  3.053839E-04  6.790407E-04
       260  8.124511E-02  4.201490E-02 -6.154445E-03
       261  1.327367E-02  1.914237E-03  7.438193E-04

 forces (fx,fy,fz) for set NALL and time  0.1000000E+01

         1 -1.034457E+02  8.407514E+01 -7.858395E+01
         2 -1.060710E+02  8.834006E+01  8.957114E+01
         3  1.000000E+03  1.122658E-11  7.503331E-12
         4  1.000000E+03  8.972378E-12 -1.357137E-12
         5 -1.355998E+02 -1.127317E+02  1.147844E+02
         6  1.000000E+03  4.970246E-12 -1.206502E-11
         7 -1.352570E+02 -1.115954E+02 -1.179368E+02
         8  1.000000E+03 -4.375833E-12 -6.803447E-13
         9 -1.596184E+02  3.159801E+02  5.770550E+00
        10 -4.789125E-11 -3.350653E-13  4.462208E-12
        11 -1.540289E-10 -2.834827E-11  2.978062E-12
        12 -3.042919E-11 -1.340832E-11 -3.436357E-11
        13 -1.693257E-12  1.944760E-11 -7.513060E-12
        14 -9.913587E-12 -3.810047E-12 -9.903239E-13
        15  1.251663E-11 -6.434668E-13 -4.727352E-13
        16  1.291221E-11  1.475561E-11  1.219943E-11
        17  1.548539E-12 -3.548745E-12 -1.398104E-12
        18  6.070838E-12  2.280745E-12 -1.792455E-12
        19  3.850253E-13  4.873879E-13  6.172840E-13
        20  1.000000E+03 -1.027978E-11 -2.856382E-12
        21  6.721734E-11 -2.377476E-11 -1.165645E-11
        22 -5.802660E-11 -2.603708E-11 -2.480635E-11
        23 -2.124739E-11 -3.526823E-13 -8.344915E-12
        24 -2.053422E-11  1.150904E-11 -1.308435E-11
        25  5.612321E-11 -7.475680E-12  1.399038E-11
        26 -1.543320E-11  9.290099E-13  1.333623E-12
        27 -7.742372E-12  1.202309E-12  5.494927E-12
        28  6.970600E-12  1.190274E-12  4.136310E-12
        29 -8.504401E-13 -3.777373E-12  3.049062E-13
        30 -1.600942E-12  1.361578E-12 -3.552714E-14
        31 -1.920488E+02  6.935408E+00  3.251715E+02
        32 -1.140394E-10  2.772360E-11 -1.179812E-11
        33 -6.037837E-11 -7.317702E-12  3.134204E-11
        34 -7.491962E-11 -6.127624E-11 -6.387939E-12
        35 -2.892006E-11  3.956625E-12 -2.380451E-11
        36 -3.037360E-11  1.534537E-11  8.827755E-12
        37  2.951303E-12 -1.597379E-11  9.694319E-13
        38  1.645166E-11  1.254108E-12 -7.742685E-12
        39  7.817164E-12 -7.286616E-12 -7.532142E-12
        40 -2.292389E-12 -1.048037E-12 -4.618528E-14
        41  3.433587E-12  6.187273E-13 -9.183765E-13
        42  1.000000E+03  1.402345E-11  7.766232E-12
        43 -1.774449E+02 -3.179700E+02 -4.901886E-01
        44  4.205880E-11  1.706735E-11  1.313349E-11
        45  5.761613E-12  9.068302E-12 -6.737721E-12
        46 -3.349898E-11 -1.761356E-11 -6.913383E-12
        47  1.699059E-11 -7.918360E-12 -3.572115E-12
        48 -1.582251E-12  7.480962E-13  1.186033E-11
        49 -3.458486E-12 -3.373456E-12 -6.008358E-12
        50 -2.170997E-12 -5.472521E-12  4.083437E-12
        51  1.151991E-11  3.255181E-13  3.176997E-12
        52  4.612311E-12 -4.128059E-12  3.699929E-12
        53  3.151812E-12 -2.524023E-13 -8.512357E-13
        54  1.000000E+03  4.850786E-11  5.385914E-12
        55 -1.834370E+02  8.018091E+00 -3.085792E+02
        56  1.000000E+03 -5.640821E-11 -3.404921E-11
        57  1.000000E+03  1.004530E-11  1.226397E-11
        58  7.704208E+01 -3.539456E+01 -2.453545E+00
        59 -6.580334E-12  1.668665E-13 -1.709743E-12
        60 -1.056511E+03  3.708654E+02 -5.643062E+01
        61 -4.693190E-13 -3.341494E-13  0.000000E+00
        62  5.968559E-13  2.496892E-13 -2.415845E-13
        63 -1.063012E+03  3.794807E+02  4.932214E+01
        64 -5.944134E-13 -2.842171E-14  4.121148E-13
        65  2.598477E-13 -1.265654E-14  9.947598E-14
        66 -2.934986E-11 -5.790879E-11  1.531220E-11
        67 -2.374900E-11  3.476863E-11 -1.563194E-13
        68 -5.330847E-12  3.539391E-11 -1.149303E-12
        69  1.193889E-11  1.797285E-12  9.694412E-12
        70  6.427769E-11 -4.035750E-11  2.239739E-11
        71 -8.747606E-11 -9.438051E-11  1.925217E-12
        72 -4.885578E-11 -1.614232E-11 -5.446110E-12
        73  5.670434E-11 -8.385237E-12  1.619854E-11
        74 -1.333343E-11  2.775519E-12 -1.439943E-11
        75  2.225138E-11 -1.777560E-11 -7.716071E-12
        76 -1.476380E-11 -1.565328E-11  7.858110E-12
        77  3.311490E-11  2.604313E-11  2.041190E-11
        78  6.640466E-12 -1.115526E-12  2.562550E-12
        79 -1.145573E-11 -7.347312E-12 -8.099528E-12
        80 -2.725586E-11  8.599139E-12 -1.946441E-11
        81 -6.166591E-12 -1.311326E-12  6.288177E-12
        82 -2.427491E-11  1.368867E-11 -2.497075E-14
        83  4.744869E-11  5.396225E-12 -2.373377E-11
        84  8.640907E-12 -3.695828E-12 -4.154561E-12
        85 -2.418808E-11 -1.283914E-11 -1.125639E-11
        86  1.262284E-11 -1.238276E-11  7.164067E-12
        87 -1.965783E-11 -9.218182E-13  2.643830E-12
        88  7.652545E-12 -1.797951E-12 -2.382872E-12
        89 -1.580895E-11 -1.019684E-12  2.345957E-12
        90 -3.504530E-12  4.825446E-13  1.157519E-12
        91  2.058798E-12 -1.345146E-12  3.534950E-13
        92  3.289968E-11 -2.025113E-11 -1.079226E-11
        93 -3.493170E-11 -3.222894E-12 -7.459471E-12
        94 -2.558953E-11  1.310673E-11 -7.320096E-12
        95 -3.129605E-11 -2.778229E-11  1.173533E-11
        96 -1.151522E-11  3.215505E-12  1.019082E-12
        97 -7.175760E-12 -8.910470E-12  7.847764E-12
        98 -3.929301E-11  1.354294E-11 -9.379164E-13
        99  1.000000E+03  4.263256E-11 -1.452349E-11
       100 -2.115330E-11  6.907586E-12  5.750067E-12
       101  1.764151E-11  8.076121E-13  9.622035E-13
       102 -3.573054E-11 -1.739074E-12  1.749655E-12
       103 -7.037312E-12  1.706037E-11 -7.398866E-12
       104  3.481659E-12  8.144596E-13 -1.774580E-12
       105  1.623146E-12 -3.108624E-14 -1.740830E-12
       106  2.237499E-11  9.500312E-11 -1.336176E-11
       107  1.000000E+03 -1.950973E-11  4.348522E-12
       108 -5.435652E-13 -3.647749E-12 -6.266987E-12
       109 -1.080764E+03  6.291692E+01  3.893026E+02
       110 -2.884359E-13  2.664535E-13 -1.534772E-12
       111 -1.222703E+03 -4.857501E+01  4.585785E+02
       112 -1.088019E-12 -3.437528E-14 -1.261213E-13
       113 -4.920508E-13 -4.440892E-14 -7.389644E-13
       114 -6.520651E-11 -4.741185E-11 -3.646505E-11
       115  2.120998E-10  2.572520E-11 -1.137113E-11
       116 -2.732342E-11  4.833881E-11  8.986145E-13
       117 -8.370971E-12 -9.570927E-12 -1.427741E-11
       118 -7.471344E-11 -6.457686E-11  5.298770E-12
       119  8.033675E-11  3.860073E-11 -9.481173E-12
       120  2.793585E-11  6.516532E-11  1.294187E-11
       121 -4.407705E-11  1.033314E-11 -8.092832E-12
       122 -1.002583E-10 -1.732183E-11 -2.472467E-13
       123  9.556415E-11 -1.140997E-11  4.788253E-13
       124 -2.212953E-12  3.197887E-11 -3.830608E-11
       125  3.621930E-11 -1.325758E-11  3.103250E-12
       126 -4.129594E-11  1.443530E-12 -4.828100E-12
       127  6.446206E-12 -1.532949E-11 -1.758410E-11
       128  1.345197E-11  1.120763E-11  4.143580E-12
       129 -8.638587E-11  1.997424E-11  1.421148E-11
       130  4.683628E-11  2.694027E-12  1.088462E-11
       131 -2.106622E-11  1.239570E-11  7.653697E-12
       132 -3.242861E-11 -3.293026E-12  2.545903E-12
       133 -4.593758E-12  1.508942E-11 -1.744339E-11
       134 -1.676216E-11 -1.842504E-12  1.297640E-12
       135 -3.552714E-15 -6.798229E-12 -1.465494E-12
       136  1.696199E-12  3.110290E-13 -6.131540E-12
       137 -8.114398E-12 -2.008615E-12  3.427814E-12
       138  2.258194E-12 -1.629696E-12 -6.099565E-12
       139  3.793632E-12 -1.844302E-12 -1.204370E-12
       140 -4.845502E-11  3.235634E-12 -8.357759E-12
       141  1.443556E-11  3.056622E-11 -1.008260E-11
       142 -2.897416E-11 -7.995382E-12  1.763567E-11
       143  3.766587E-11 -2.355982E-11 -9.805490E-13
       144  1.000000E+03  1.465494E-12 -3.410605E-13
       145  1.000000E+03 -1.840306E-12 -1.666933E-11
       146 -1.716738E-12  2.200684E-12 -2.409628E-12
       147 -1.042819E+03 -4.411601E+02  4.912139E+01
       148 -1.618261E-12 -1.430314E-13 -3.552714E-14
       149 -1.033356E+03 -4.373484E+02 -5.167941E+01
       150 -1.158629E-12 -7.092521E-13 -3.179679E-13
       151 -6.230051E-13  1.621522E-12  7.815970E-14
       152  2.295941E-11 -9.588774E-12 -2.890133E-12
       153  7.996208E-11 -2.528913E-12  6.643038E-12
       154 -5.390177E-11  5.198775E-11  1.002576E-11
       155  3.152012E-11  2.703618E-11  1.385447E-12
       156 -3.620624E-11  3.186934E-11 -2.135758E-13
       157  4.453465E-12 -2.770326E-11 -2.892792E-11
       158 -1.129015E-11 -2.980998E-11  1.934671E-11
       159 -7.346719E-11  1.565343E-11 -9.710055E-12
       160  1.647157E-11  2.542055E-11 -1.184899E-11
       161 -2.178455E-12 -1.595205E-11 -7.969322E-12
       162 -6.492713E-11 -9.536816E-14 -2.380675E-11
       163  5.205152E-11  1.101512E-11  3.812187E-12
       164 -2.810073E-11  1.151630E-12  6.043498E-12
       165  8.022999E-11 -1.747985E-11 -1.332762E-11
       166 -8.216037E-12  1.942469E-11  7.758640E-12
       167  2.695983E-11 -3.410441E-12 -4.667358E-12
       168 -2.875979E-11  6.360820E-12 -4.550815E-12
       169 -2.828959E-11 -4.116142E-12 -1.331827E-12
       170 -1.381848E-11 -2.068183E-12  6.423920E-12
       171  2.636018E-12 -1.743880E-11 -1.282505E-11
       172  1.558789E-11 -5.721905E-12 -7.210018E-12
       173  3.188991E-12  4.908740E-12  3.067019E-12
       174  1.639211E-11  1.525718E-11  4.447220E-12
       175  1.408074E-11  6.543377E-13  1.696421E-12
       176 -7.201129E-12 -1.595446E-12  6.876721E-13
       177 -4.300782E-12  5.090123E-12 -3.280043E-12
       178  3.461564E-12 -1.382172E-12  9.748868E-13
       179 -2.874145E-12  2.583267E-11  1.175238E-11
       180  2.707168E-11 -3.746781E-11  1.109868E-11
       181  2.914957E-11 -1.671441E-11 -2.098233E-11
       182  1.000000E+03 -2.159612E-11  1.161187E-11
       183  1.000000E+03  1.473666E-11 -1.240252E-11
       184 -2.159162E-12 -2.754241E-12  1.346478E-12
       185 -1.266588E+03 -4.804850E+01 -4.736522E+02
       186  0.000000E+00  8.126833E-14 -6.394885E-13
       187 -1.053862E+03  7.176995E+01 -3.523250E+02
       188 -7.212009E-13  1.050271E-13 -4.476419E-13
       189  6.504575E-11  3.298539E-11  4.691181E-11
       190  8.112225E-11  6.086056E-11  2.920503E-11
       191  1.115549E-10  4.773681E-13  2.593709E-11
       192 -5.558543E-11  3.601251E-13 -1.932558E-12
       193  6.020376E-11 -3.342760E-11 -2.223985E-11
       194  3.110660E-11 -7.007946E-12  4.761885E-13
       195  1.955562E-13  3.258367E-11  4.445940E-13
       196 -1.262548E-11 -2.122974E-11  2.666017E-11
       197 -4.079924E-11  2.183686E-12 -1.484369E-11
       198  1.688102E-11  8.586579E-12 -8.859457E-12
       199  6.339505E-12 -6.097774E-13 -8.284904E-12
       200 -1.708507E-11  1.364197E-12  7.081943E-12
       201  5.180264E-12 -1.033786E-12 -3.228719E-12
       202 -2.278525E-11  7.564712E-13  4.718764E-12
       203 -6.302778E-12 -2.203376E-12  4.105799E-12
       204  6.263212E-12  9.462771E-12  2.662537E-12
       205 -1.036060E-12 -1.104949E-12 -4.092948E-12
       206 -1.029576E-11  7.608580E-12 -3.386091E-11
       207 -4.028777E-12  3.726086E-11 -3.485923E-11
       208  3.375078E-11  1.467271E-12 -1.425349E-11
       209  1.000000E+03  7.460699E-13  2.408740E-12
       210  1.000000E+03  2.679634E-12  9.720225E-12
       211 -4.003686E-12 -5.763168E-13 -1.447509E-12
       212  1.000000E+03 -7.917800E-11 -3.546319E-11
       213  1.000000E+03  5.448442E-11  5.172751E-12
       214  1.000000E+03 -7.895551E-11  3.814193E-11
       215  1.000000E+03 -1.328448E-11  1.626432E-11
       216  1.000000E+03 -1.977192E-10  2.165734E-11
       217  1.000000E+03  2.943423E-11  9.720225E-12
       218  1.000000E+03 -1.702021E-11 -2.162071E-11
       219  1.000000E+03 -4.714806E-11 -2.077627E-11
       220 -1.980622E+03 -1.104325E+01 -1.848366E+01
       221 -2.045600E+03  2.301980E+02 -1.965794E+02
       222 -1.928873E+03  7.322725E+00 -3.131906E+01
       223 -2.063287E+03  2.109946E+02  1.940557E+02
       224 -1.431606E+03 -3.609096E+00 -1.250948E+00
       225 -1.874097E+03 -1.264496E+02 -1.321128E+02
       226 -1.897499E+03 -2.014728E+01  2.367727E+01
       227 -1.842920E+03 -1.228241E+02  1.225216E+02
       228  6.012839E-11 -6.159019E-12 -2.547530E-13
       229  4.177851E-11  7.372555E-12  1.382410E-11
       230  2.684075E-11 -4.493117E-11 -1.932676E-12
       231 -4.864185E-12 -4.400398E-12  1.973978E-12
       232 -1.325384E-12  2.207484E-12 -4.021228E-13
       233 -3.510081E-12 -4.093947E-13  1.591616E-12
       234 -7.410073E-12 -2.001954E-12  8.952838E-13
       235 -3.952477E-11 -3.271678E-12 -1.566984E-13
       236  1.485658E-11  1.423410E-12 -2.368787E-11
       237  4.032330E-12  1.971423E-12  2.599254E-12
       238  2.355205E-11  5.095598E-12 -1.385114E-12
       239 -1.027672E-11 -1.292605E-12  2.615019E-12
       240 -1.497913E-12 -7.066570E-13 -1.099343E-12
       241  7.371770E-12 -1.491696E-12 -3.579359E-13
       242 -5.022649E-12 -2.897571E-11 -2.106582E-11
       243 -1.946963E-10  1.624786E-11 -4.775333E-11
       244  3.657812E-11 -8.837435E-11  3.424103E-11
       245 -9.121184E-11  1.408332E-11 -4.787073E-11
       246 -8.818901E-11 -8.272316E-11 -2.156497E-11
       247 -6.873435E-11 -2.209433E-11  1.148237E-11
       248 -5.897505E-13  1.395950E-11 -1.215028E-11
       249  8.903882E-11  3.476477E-11  3.078293E-11
       250  3.917200E-12 -1.203038E-12  7.283063E-13
       251 -2.819522E-12  7.411849E-13  1.952216E-12
       252 -7.662670E-11  4.939915E-11 -8.482637E-11
       253 -2.137405E-11  2.298745E-11  7.832528E-12
       254  1.690870E-12  1.249223E-12 -1.243450E-13
       255 -1.656194E-12 -5.762682E-13 -1.545236E-12
       256  9.872777E-11 -6.909658E-11 -3.564326E-11
       257 -2.644629E-11  5.742164E-12  4.297007E-12
       258 -3.579577E-11 -3.578648E-11  1.312827E-12
       259  4.971277E-12 -1.938789E-12  8.767169E-12
       260  3.717922E-12 -3.356799E-11  2.309010E-11
       261 -3.805622E-12 -2.356525E-12  6.089129E-12

 reaction forces (rfx,rfy,rfz) for set NALL and time  0.1000000E+01

         1 -1.034457E+02  8.407514E+01 -7.858395E+01
         2 -1.060710E+02  8.834006E+01  8.957114E+01
         3  0.000000E+00  0.000000E+00  0.000000E+00
         4  0.000000E+00  0.000000E+00  0.000000E+00
         5 -1.355998E+02 -1.127317E+02  1.147844E+02
         6  0.000000E+00  0.000000E+00  0.000000E+00
         7 -1.352570E+02 -1.115954E+02 -1.179368E+02
         8  0.000000E+00  0.000000E+00  0.000000E+00
         9 -1.596184E+02  3.159801E+02  5.770550E+00
        10  0.000000E+00  0.000000E+00  0.000000E+00
        11  0.000000E+00  0.000000E+00  0.000000E+00
        12  0.000000E+00  0.000000E+00  0.000000E+00
        13  0.000000E+00  0.000000E+00  0.000000E+00
        14  0.000000E+00  0.000000E+00  0.000000E+00
        15  0.000000E+00  0.000000E+00  0.000000E+00
        16  0.000000E+00  0.000000E+00  0.000000E+00
        17  0.000000E+00  0.000000E+00  0.000000E+00
        18  0.000000E+00  0.000000E+00  0.000000E+00
        19  0.000000E+00  0.000000E+00  0.000000E+00
        20  0.000000E+00  0.000000E+00  0.000000E+00
        21  0.000000E+00  0.000000E+00  0.000000E+00
        22  0.000000E+00  0.000000E+00  0.000000E+00
        23  0.000000E+00  0.000000E+00  0.000000E+00
        24  0.000000E+00  0.000000E+00  0.000000E+00
        25  0.000000E+00  0.000000E+00  0.000000E+00
        26  0.000000E+00  0.000000E+00  0.000000E+00
        27  0.000000E+00  0.000000E+00  0.000000E+00
        28  0.000000E+00  0.000000E+00  0.000000E+00
        29  0.000000E+00  0.000000E+00  0.000000E+00
        30  0.000000E+00  0.000000E+00  0.000000E+00
        31 -1.920488E+02  6.935408E+00  3.251715E+02
        32  0.000000E+00  0.000000E+00  0.000000E+00
        33  0.000000E+00  0.000000E+00  0.000000E+00
        34  0.000000E+00  0.000000E+00  0.000000E+00
        35  0.000000E+00  0.000000E+00  0.000000E+00
        36  0.000000E+00  0.000000E+00  0.000000E+00
        37  0.000000E+00  0.000000E+00  0.000000E+00
        38  0.000000E+00  0.000000E+00  0.000000E+00