
                        S T E P       1


                                INCREMENT     1


 displacements (vx,vy,vz) for set NALL and time  0.1000000E-02

         1  0.000000E+00  0.000000E+00  0.000000E+00
         2 -6.428410E-04  0.000000E+00  0.000000E+00
         3 -6.428410E-04 -6.428410E-04  0.000000E+00
         4 -2.491442E-17 -6.428410E-04  0.000000E+00
         5  4.446686E-11  4.446972E-11  1.180926E-02
         6 -6.428410E-04  4.446971E-11  1.180926E-02
         7 -6.428410E-04 -6.428410E-04  1.180926E-02
         8  4.446687E-11 -6.428410E-04  1.180926E-02
         9 -1.607102E-04  1.334072E-15  0.000000E+00
        10 -3.214205E-04  3.555937E-15  0.000000E+00
        11 -4.821307E-04  1.333646E-15  0.000000E+00
        12 -6.428410E-04 -1.607102E-04  0.000000E+00
        13 -6.428410E-04 -3.214205E-04  0.000000E+00
        14 -6.428410E-04 -4.821307E-04  0.000000E+00
        15 -4.821307E-04 -6.428410E-04  0.000000E+00
        16 -3.214205E-04 -6.428410E-04  0.000000E+00
        17 -1.607102E-04 -6.428410E-04  0.000000E+00
        18  1.307202E-15 -4.821307E-04  0.000000E+00
        19  3.532476E-15 -3.214205E-04  0.000000E+00
        20  1.319135E-15 -1.607102E-04  0.000000E+00
        21 -1.607102E-04  4.704226E-11  1.180926E-02
        22 -3.214205E-04  4.660379E-11  1.180926E-02
        23 -4.821307E-04  4.704225E-11  1.180926E-02
        24 -6.428410E-04 -1.607102E-04  1.180926E-02
        25 -6.428410E-04 -3.214205E-04  1.180926E-02
        26 -6.428410E-04 -4.821307E-04  1.180926E-02
        27 -4.821307E-04 -6.428410E-04  1.180926E-02
        28 -3.214205E-04 -6.428410E-04  1.180926E-02
        29 -1.607102E-04 -6.428410E-04  1.180926E-02
        30  4.703941E-11 -4.821307E-04  1.180926E-02
        31  4.660094E-11 -3.214205E-04  1.180926E-02
        32  4.703940E-11 -1.607102E-04  1.180926E-02
        33 -6.428410E-04 -2.334740E-16  7.380787E-04
        34 -6.428410E-04 -6.707482E-15  1.476157E-03
        35 -6.428410E-04 -1.772020E-15  2.214236E-03
        36 -6.428410E-04 -4.955816E-16  2.952315E-03
        37 -6.428410E-04  1.760948E-14  3.690393E-03
        38 -6.428410E-04 -4.452009E-14  4.428472E-03
        39 -6.428410E-04 -3.874897E-14  5.166551E-03
        40 -6.428410E-04 -3.616336E-14  5.904629E-03
        41 -6.428410E-04  2.845778E-13  6.642708E-03
        42 -6.428410E-04 -4.234774E-13  7.380787E-03
        43 -6.428410E-04 -5.822556E-13  8.118865E-03
        44 -6.428410E-04 -6.553243E-13  8.856944E-03
        45 -6.428410E-04  4.280694E-12  9.595023E-03
        46 -6.428410E-04 -2.353879E-12  1.033310E-02
        47 -6.428410E-04 -1.091893E-11  1.107118E-02
        48 -1.092153E-11 -1.091892E-11  1.107118E-02
        49 -2.356221E-12 -2.353865E-12  1.033310E-02
        50  4.278597E-12  4.280701E-12  9.595023E-03
        51 -6.571665E-13 -6.553166E-13  8.856944E-03
        52 -5.838549E-13 -5.822453E-13  8.118865E-03
        53 -4.248396E-13 -4.234679E-13  7.380787E-03
        54  2.834365E-13  2.845896E-13  6.642708E-03
        55 -3.709628E-14 -3.615688E-14  5.904629E-03
        56 -3.948583E-14 -3.874209E-14  5.166551E-03
        57 -4.507818E-14 -4.451767E-14  4.428472E-03
        58  1.720996E-14  1.761466E-14  3.690393E-03
        59 -7.611410E-16 -4.934663E-16  2.952315E-03
        60 -1.924988E-15 -1.767946E-15  2.214236E-03
        61 -6.779915E-15 -6.705643E-15  1.476157E-03
        62 -2.542013E-16 -2.325516E-16  7.380787E-04
        63 -6.428410E-04 -6.428410E-04  7.380787E-04
        64 -6.428410E-04 -6.428410E-04  1.476157E-03
        65 -6.428410E-04 -6.428410E-04  2.214236E-03
        66 -6.428410E-04 -6.428410E-04  2.952315E-03
        67 -6.428410E-04 -6.428410E-04  3.690393E-03
        68 -6.428410E-04 -6.428410E-04  4.428472E-03
        69 -6.428410E-04 -6.428410E-04  5.166551E-03
        70 -6.428410E-04 -6.428410E-04  5.904629E-03
        71 -6.428410E-04 -6.428410E-04  6.642708E-03
        72 -6.428410E-04 -6.428410E-04  7.380787E-03
        73 -6.428410E-04 -6.428410E-04  8.118865E-03
        74 -6.428410E-04 -6.428410E-04  8.856944E-03
        75 -6.428410E-04 -6.428410E-04  9.595023E-03
        76 -6.428410E-04 -6.428410E-04  1.033310E-02
        77 -6.428410E-04 -6.428410E-04  1.107118E-02
        78 -2.767417E-16 -6.428410E-04  7.380787E-04
        79 -6.799212E-15 -6.428410E-04  1.476157E-03
        80 -1.941744E-15 -6.428410E-04  2.214236E-03
        81 -7.764768E-16 -6.428410E-04  2.952315E-03
        82  1.719850E-14 -6.428410E-04  3.690393E-03
        83 -4.508746E-14 -6.428410E-04  4.428472E-03
        84 -3.949262E-14 -6.428410E-04  5.166551E-03
        85 -3.710004E-14 -6.428410E-04  5.904629E-03
        86  2.834349E-13 -6.428410E-04  6.642708E-03
        87 -4.248383E-13 -6.428410E-04  7.380787E-03
        88 -5.838505E-13 -6.428410E-04  8.118865E-03
        89 -6.571641E-13 -6.428410E-04  8.856944E-03
        90  4.278604E-12 -6.428410E-04  9.595023E-03
        91 -2.356217E-12 -6.428410E-04  1.033310E-02
        92 -1.092152E-11 -6.428410E-04  1.107118E-02
        93 -3.214205E-04 -1.607102E-04  0.000000E+00
        94 -1.607102E-04 -3.214205E-04  0.000000E+00
        95 -3.214205E-04 -3.214205E-04  0.000000E+00
        96 -4.821307E-04 -3.214205E-04  0.000000E+00
        97 -3.214205E-04 -4.821307E-04  0.000000E+00
        98 -3.214205E-04 -1.607102E-04  1.180926E-02
        99 -1.607102E-04 -3.214205E-04  1.180926E-02
       100 -3.214205E-04 -3.214205E-04  1.180926E-02
       101 -4.821307E-04 -3.214205E-04  1.180926E-02
       102 -3.214205E-04 -4.821307E-04  1.180926E-02
       103 -3.214205E-04 -7.355295E-16  7.380787E-04
       104 -1.607102E-04 -5.198331E-15  1.476157E-03
       105 -3.214205E-04 -4.721137E-15  1.476157E-03
       106 -4.821307E-04 -5.198888E-15  1.476157E-03
       107 -3.214205E-04 -6.303519E-15  2.214236E-03
       108 -1.607102E-04  7.250815E-15  2.952315E-03
       109 -3.214205E-04  1.636721E-14  2.952315E-03
       110 -4.821307E-04  7.249470E-15  2.952315E-03
       111 -3.214205E-04  1.208290E-14  3.690393E-03
       112 -1.607102E-04 -2.747437E-14  4.428472E-03
       113 -3.214205E-04 -1.083563E-14  4.428472E-03
       114 -4.821307E-04 -2.747578E-14  4.428472E-03
       115 -3.214205E-04 -7.620041E-14  5.166551E-03
       116 -1.607102E-04  5.169440E-14  5.904629E-03
       117 -3.214205E-04  1.341925E-13  5.904629E-03
       118 -4.821307E-04  5.169195E-14  5.904629E-03
       119 -3.214205E-04  1.758006E-13  6.642708E-03
       120 -1.607102E-04 -2.109444E-13  7.380787E-03
       121 -3.214205E-04  3.785187E-14  7.380787E-03
       122 -4.821307E-04 -2.109491E-13  7.380787E-03
       123 -3.214205E-04 -9.043137E-13  8.118865E-03
       124 -1.607102E-04  3.965306E-13  8.856944E-03
       125 -3.214205E-04  1.326913E-12  8.856944E-03
       126 -4.821307E-04  3.965252E-13  8.856944E-03
       127 -3.214205E-04  2.530641E-12  9.595023E-03
       128 -1.607102E-04  2.253916E-12  1.033310E-02
       129 -3.214205E-04  7.257344E-12  1.033310E-02
       130 -4.821307E-04  2.253910E-12  1.033310E-02
       131 -3.214205E-04 -2.136322E-11  1.107118E-02
       132 -6.428410E-04 -3.214205E-04  7.380787E-04
       133 -6.428410E-04 -1.607102E-04  1.476157E-03
       134 -6.428410E-04 -3.214205E-04  1.476157E-03
       135 -6.428410E-04 -4.821307E-04  1.476157E-03
       136 -6.428410E-04 -3.214205E-04  2.214236E-03
       137 -6.428410E-04 -1.607102E-04  2.952315E-03
       138 -6.428410E-04 -3.214205E-04  2.952315E-03
       139 -6.428410E-04 -4.821307E-04  2.952315E-03
       140 -6.428410E-04 -3.214205E-04  3.690393E-03
       141 -6.428410E-04 -1.607102E-04  4.428472E-03
       142 -6.428410E-04 -3.214205E-04  4.428472E-03
       143 -6.428410E-04 -4.821307E-04  4.428472E-03
       144 -6.428410E-04 -3.214205E-04  5.166551E-03
       145 -6.428410E-04 -1.607102E-04  5.904629E-03
       146 -6.428410E-04 -3.214205E-04  5.904629E-03
       147 -6.428410E-04 -4.821307E-04  5.904629E-03
       148 -6.428410E-04 -3.214205E-04  6.642708E-03
       149 -6.428410E-04 -1.607102E-04  7.380787E-03
       150 -6.428410E-04 -3.214205E-04  7.380787E-03
       151 -6.428410E-04 -4.821307E-04  7.380787E-03
       152 -6.428410E-04 -3.214205E-04  8.118865E-03
       153 -6.428410E-04 -1.607102E-04  8.856944E-03
       154 -6.428410E-04 -3.214205E-04  8.856944E-03
       155 -6.428410E-04 -4.821307E-04  8.856944E-03
       156 -6.428410E-04 -3.214205E-04  9.595023E-03
       157 -6.428410E-04 -1.607102E-04  1.033310E-02
       158 -6.428410E-04 -3.214205E-04  1.033310E-02
       159 -6.428410E-04 -4.821307E-04  1.033310E-02
       160 -6.428409E-04 -3.214205E-04  1.107118E-02
       161 -3.214205E-04 -6.428410E-04  7.380787E-04
       162 -4.821307E-04 -6.428410E-04  1.476157E-03
       163 -3.214205E-04 -6.428410E-04  1.476157E-03
       164 -1.607102E-04 -6.428410E-04  1.476157E-03
       165 -3.214205E-04 -6.428410E-04  2.214236E-03
       166 -4.821307E-04 -6.428410E-04  2.952315E-03
       167 -3.214205E-04 -6.428410E-04  2.952315E-03
       168 -1.607102E-04 -6.428410E-04  2.952315E-03
       169 -3.214205E-04 -6.428410E-04  3.690393E-03
       170 -4.821307E-04 -6.428410E-04  4.428472E-03
       171 -3.214205E-04 -6.428410E-04  4.428472E-03
       172 -1.607102E-04 -6.428410E-04  4.428472E-03
       173 -3.214205E-04 -6.428410E-04  5.166551E-03
       174 -4.821307E-04 -6.428410E-04  5.904629E-03
       175 -3.214205E-04 -6.428410E-04  5.904629E-03
       176 -1.607102E-04 -6.428410E-04  5.904629E-03
       177 -3.214205E-04 -6.428410E-04  6.642708E-03
       178 -4.821307E-04 -6.428410E-04  7.380787E-03
       179 -3.214205E-04 -6.428410E-04  7.380787E-03
       180 -1.607102E-04 -6.428410E-04  7.380787E-03
       181 -3.214205E-04 -6.428410E-04  8.118865E-03
       182 -4.821307E-04 -6.428410E-04  8.856944E-03
       183 -3.214205E-04 -6.428410E-04  8.856944E-03
       184 -1.607102E-04 -6.428410E-04  8.856944E-03
       185 -3.214205E-04 -6.428410E-04  9.595023E-03
       186 -4.821307E-04 -6.428410E-04  1.033310E-02
       187 -3.214205E-04 -6.428410E-04  1.033310E-02
       188 -1.607102E-04 -6.428410E-04  1.033310E-02
       189 -3.214205E-04 -6.428409E-04  1.107118E-02
       190 -7.753627E-16 -3.214205E-04  7.380787E-04
       191 -5.292003E-15 -4.821307E-04  1.476157E-03
       192 -4.811471E-15 -3.214205E-04  1.476157E-03
       193 -5.282103E-15 -1.607102E-04  1.476157E-03
       194 -6.473817E-15 -3.214205E-04  2.214236E-03
       195  6.968071E-15 -4.821307E-04  2.952315E-03
       196  1.608772E-14 -3.214205E-04  2.952315E-03
       197  6.975524E-15 -1.607102E-04  2.952315E-03
       198  1.167093E-14 -3.214205E-04  3.690393E-03
       199 -2.804535E-14 -4.821307E-04  4.428472E-03
       200 -1.140503E-14 -3.214205E-04  4.428472E-03
       201 -2.804026E-14 -1.607102E-04  4.428472E-03
       202 -7.694714E-14 -3.214205E-04  5.166551E-03
       203  5.075071E-14 -4.821307E-04  5.904629E-03
       204  1.332486E-13 -3.214205E-04  5.904629E-03
       205  5.075192E-14 -1.607102E-04  5.904629E-03
       206  1.746523E-13 -3.214205E-04  6.642708E-03
       207 -2.123166E-13 -4.821307E-04  7.380787E-03
       208  3.647855E-14 -3.214205E-04  7.380787E-03
       209 -2.123181E-13 -1.607102E-04  7.380787E-03
       210 -9.059163E-13 -3.214205E-04  8.118865E-03
       211  3.946809E-13 -4.821307E-04  8.856944E-03
       212  1.325063E-12 -3.214205E-04  8.856944E-03
       213  3.946797E-13 -1.607102E-04  8.856944E-03
       214  2.528545E-12 -3.214205E-04  9.595023E-03
       215  2.251566E-12 -4.821307E-04  1.033310E-02
       216  7.254996E-12 -3.214205E-04  1.033310E-02
       217  2.251566E-12 -1.607102E-04  1.033310E-02
       218 -2.136582E-11 -3.214205E-04  1.107118E-02
       219 -3.214205E-04 -3.214205E-04  7.380787E-04
       220 -3.214205E-04 -1.607102E-04  1.476157E-03
       221 -1.607102E-04 -3.214205E-04  1.476157E-03
       222 -3.214205E-04 -3.214205E-04  1.476157E-03
       223 -4.821307E-04 -3.214205E-04  1.476157E-03
       224 -3.214205E-04 -4.821307E-04  1.476157E-03
       225 -3.214205E-04 -3.214205E-04  2.214236E-03
       226 -3.214205E-04 -1.607102E-04  2.952315E-03
       227 -1.607102E-04 -3.214205E-04  2.952315E-03
       228 -3.214205E-04 -3.214205E-04  2.952315E-03
       229 -4.821307E-04 -3.214205E-04  2.952315E-03
       230 -3.214205E-04 -4.821307E-04  2.952315E-03
       231 -3.214205E-04 -3.214205E-04  3.690393E-03
       232 -3.214205E-04 -1.607102E-04  4.428472E-03
       233 -1.607102E-04 -3.214205E-04  4.428472E-03
       234 -3.214205E-04 -3.214205E-04  4.428472E-03
       235 -4.821307E-04 -3.214205E-04  4.428472E-03
       236 -3.214205E-04 -4.821307E-04  4.428472E-03
       237 -3.214205E-04 -3.214205E-04  5.166551E-03
       238 -3.214205E-04 -1.607102E-04  5.904629E-03
       239 -1.607102E-04 -3.214205E-04  5.904629E-03
       240 -3.214205E-04 -3.214205E-04  5.904629E-03
       241 -4.821307E-04 -3.214205E-04  5.904629E-03
       242 -3.214205E-04 -4.821307E-04  5.904629E-03
       243 -3.214205E-04 -3.214205E-04  6.642708E-03
       244 -3.214205E-04 -1.607102E-04  7.380787E-03
       245 -1.607102E-04 -3.214205E-04  7.380787E-03
       246 -3.214205E-04 -3.214205E-04  7.380787E-03
       247 -4.821307E-04 -3.214205E-04  7.380787E-03
       248 -3.214205E-04 -4.821307E-04  7.380787E-03
       249 -3.214205E-04 -3.214205E-04  8.118865E-03
       250 -3.214205E-04 -1.607102E-04  8.856944E-03
       251 -1.607102E-04 -3.214205E-04  8.856944E-03
       252 -3.214205E-04 -3.214205E-04  8.856944E-03
       253 -4.821307E-04 -3.214205E-04  8.856944E-03
       254 -3.214205E-04 -4.821307E-04  8.856944E-03
       255 -3.214205E-04 -3.214205E-04  9.595023E-03
       256 -3.214205E-04 -1.607102E-04  1.033310E-02
       257 -1.607102E-04 -3.214205E-04  1.033310E-02
       258 -3.214205E-04 -3.214205E-04  1.033310E-02
       259 -4.821307E-04 -3.214205E-04  1.033310E-02
       260 -3.214205E-04 -4.821307E-04  1.033310E-02
       261 -3.214205E-04 -3.214205E-04  1.107118E-02

 internal state variables (elem, integ.pnt.,values) for set EALL and time  0.1000000E-02

         1   1  9.999697E-04 -4.999849E-04 -4.999849E-04  9.999697E-04 -1.722129E-15  6.695717E-15  6.696871E-15
         1   2  9.999697E-04 -4.999849E-04 -4.999849E-04  9.999697E-04 -1.287612E-15  3.539105E-15 -6.759693E-16
         1   3  9.999697E-04 -4.999849E-04 -4.999849E-04  9.999697E-04 -1.287145E-15 -6.756008E-16  3.539961E-15
         1   4  9.999697E-04 -4.999849E-04 -4.999849E-04  9.999697E-04 -1.771613E-15 -1.928945E-15 -1.928682E-15
         1   5  9.999697E-04 -4.999849E-04 -4.999849E-04  9.999697E-04  5.409875E-15  6.162246E-15  6.163091E-15
         1   6  9.999697E-04 -4.999849E-04 -4.999849E-04  9.999697E-04  4.262353E-15 -3.768835E-15  3.191753E-15
         1   7  9.999697E-04 -4.999849E-04 -4.999849E-04  9.999697E-04  4.262585E-15  3.191910E-15 -3.767379E-15
         1   8  9.999697E-04 -4.999849E-04 -4.999849E-04  9.999697E-04  4.288293E-15 -4.361756E-15 -4.361021E-15
         2   1  9.999697E-04 -4.999849E-04 -4.999849E-04  9.999697E-04  1.287592E-15 -3.539299E-15 -6.758758E-16
         2   2  9.999697E-04 -4.999849E-04 -4.999849E-04  9.999697E-04  1.722796E-15 -6.695732E-15  6.696670E-15
         2   3  9.999697E-04 -4.999849E-04 -4.999849E-04  9.999697E-04  1.771784E-15  1.929114E-15 -1.928615E-15
         2   4  9.999697E-04 -4.999849E-04 -4.999849E-04  9.999697E-04  1.287539E-15  6.755208E-16  3.539318E-15
         2   5  9.999697E-04 -4.999849E-04 -4.999849E-04  9.999697E-04 -4.262081E-15  3.769010E-15  3.191955E-15
         2   6  9.999697E-04 -4.999849E-04 -4.999849E-04  9.999697E-04 -5.409616E-15 -6.163027E-15  6.163847E-15
         2   7  9.999697E-04 -4.999849E-04 -4.999849E-04  9.999697E-04 -4.288314E-15  4.361990E-15 -4.361242E-15
         2   8  9.999697E-04 -4.999849E-04 -4.999849E-04  9.999697E-04 -4.262326E-15 -3.191715E-15 -3.768022E-15
         3   1  9.999697E-04 -4.999849E-04 -4.999849E-04  9.999697E-04  1.287314E-15 -6.756054E-16 -3.539596E-15
         3   2  9.999697E-04 -4.999849E-04 -4.999849E-04  9.999697E-04  1.771968E-15 -1.929181E-15  1.929311E-15
         3   3  9.999697E-04 -4.999849E-04 -4.999849E-04  9.999697E-04  1.722686E-15  6.695612E-15 -6.695308E-15
         3   4  9.999697E-04 -4.999849E-04 -4.999849E-04  9.999697E-04  1.287584E-15  3.539445E-15  6.753865E-16
         3   5  9.999697E-04 -4.999849E-04 -4.999849E-04  9.999697E-04 -4.262369E-15  3.191541E-15  3.769202E-15
         3   6  9.999697E-04 -4.999849E-04 -4.999849E-04  9.999697E-04 -4.288216E-15 -4.361482E-15  4.360964E-15
         3   7  9.999697E-04 -4.999849E-04 -4.999849E-04  9.999697E-04 -5.409999E-15  6.163065E-15 -6.162727E-15
         3   8  9.999697E-04 -4.999849E-04 -4.999849E-04  9.999697E-04 -4.262439E-15 -3.769031E-15 -3.192636E-15
         4   1  9.999697E-04 -4.999849E-04 -4.999849E-04  9.999697E-04 -1.771736E-15  1.929171E-15  1.929171E-15
         4   2  9.999697E-04 -4.999849E-04 -4.999849E-04  9.999697E-04 -1.287429E-15  6.754081E-16 -3.539184E-15
         4   3  9.999697E-04 -4.999849E-04 -4.999849E-04  9.999697E-04 -1.287093E-15 -3.538886E-15  6.756359E-16
         4   4  9.999697E-04 -4.999849E-04 -4.999849E-04  9.999697E-04 -1.722700E-15 -6.695596E-15 -6.695375E-15
         4   5  9.999697E-04 -4.999849E-04 -4.999849E-04  9.999697E-04  4.287940E-15  4.361213E-15  4.360820E-15
         4   6  9.999697E-04 -4.999849E-04 -4.999849E-04  9.999697E-04  4.262676E-15 -3.192082E-15  3.769341E-15
         4   7  9.999697E-04 -4.999849E-04 -4.999849E-04  9.999697E-04  4.262566E-15  3.769605E-15 -3.191993E-15
         4   8  9.999697E-04 -4.999849E-04 -4.999849E-04  9.999697E-04  5.410282E-15 -6.163456E-15 -6.162737E-15
         5   1  9.999697E-04 -4.999849E-04 -4.999849E-04  9.999697E-04 -1.840424E-15 -1.045885E-14 -1.045810E-14
         5   2  9.999697E-04 -4.999849E-04 -4.999849E-04  9.999697E-04 -1.046197E-15 -1.112333E-14 -1.339654E-16
         5   3  9.999697E-04 -4.999849E-04 -4.999849E-04  9.999697E-04 -1.046584E-15 -1.342698E-16 -1.112221E-14
         5   4  9.999697E-04 -4.999849E-04 -4.999849E-04  9.999697E-04  7.280384E-16  9.561608E-16  9.574579E-16
         5   5  9.999697E-04 -4.999849E-04 -4.999849E-04  9.999697E-04 -7.049996E-15 -2.401452E-14 -2.401316E-14
         5   6  9.999697E-04 -4.999849E-04 -4.999849E-04  9.999697E-04 -7.323784E-15  1.868912E-14 -7.811388E-15
         5   7  9.999697E-04 -4.999849E-04 -4.999849E-04  9.999697E-04 -7.323903E-15 -7.811552E-15  1.868964E-14
         5   8  9.999697E-04 -4.999849E-04 -4.999849E-04  9.999697E-04 -9.234685E-15  1.755777E-14  1.755777E-14
         6   1  9.999697E-04 -4.999849E-04 -4.999849E-04  9.999697E-04  1.046426E-15  1.112352E-14 -1.351310E-16
         6   2  9.999697E-04 -4.999849E-04 -4.999849E-04  9.999697E-04  1.840035E-15  1.045740E-14 -1.045775E-14
         6   3  9.999697E-04 -4.999849E-04 -4.999849E-04  9.999697E-04 -7.281880E-16 -9.565082E-16  9.574867E-16
         6   4  9.999697E-04 -4.999849E-04 -4.999849E-04  9.999697E-04  1.046714E-15  1.345266E-16 -1.112295E-14
         6   5  9.999697E-04 -4.999849E-04 -4.999849E-04  9.999697E-04  7.323601E-15 -1.868754E-14 -7.811621E-15
         6   6  9.999697E-04 -4.999849E-04 -4.999849E-04  9.999697E-04  7.050715E-15  2.401469E-14 -2.401524E-14
         6   7  9.999697E-04 -4.999849E-04 -4.999849E-04  9.999697E-04  9.234727E-15 -1.755698E-14  1.755740E-14
         6   8  9.999697E-04 -4.999849E-04 -4.999849E-04  9.999697E-04  7.324037E-15  7.810211E-15  1.868993E-14
         7   1  9.999697E-04 -4.999849E-04 -4.999849E-04  9.999697E-04  1.046763E-15 -1.351682E-16  1.112271E-14
         7   2  9.999697E-04 -4.999849E-04 -4.999849E-04  9.999697E-04 -7.279492E-16  9.565632E-16 -9.561196E-16
         7   3  9.999697E-04 -4.999849E-04 -4.999849E-04  9.999697E-04  1.840507E-15 -1.045822E-14  1.045860E-14
         7   4  9.999697E-04 -4.999849E-04 -4.999849E-04  9.999697E-04  1.046866E-15 -1.112224E-14  1.343636E-16
         7   5  9.999697E-04 -4.999849E-04 -4.999849E-04  9.999697E-04  7.323727E-15 -7.810140E-15 -1.868766E-14
         7   6  9.999697E-04 -4.999849E-04 -4.999849E-04  9.999697E-04  9.235052E-15  1.755715E-14 -1.755713E-14
         7   7  9.999697E-04 -4.999849E-04 -4.999849E-04  9.999697E-04  7.049867E-15 -2.401475E-14  2.401388E-14
         7   8  9.999697E-04 -4.999849E-04 -4.999849E-04  9.999697E-04  7.323139E-15  1.868835E-14  7.812312E-15
         8   1  9.999697E-04 -4.999849E-04 -4.999849E-04  9.999697E-04  7.283319E-16 -9.569591E-16 -9.570646E-16
         8   2  9.999697E-04 -4.999849E-04 -4.999849E-04  9.999697E-04 -1.046872E-15  1.351238E-16  1.112361E-14
         8   3  9.999697E-04 -4.999849E-04 -4.999849E-04  9.999697E-04 -1.046512E-15  1.112414E-14  1.340758E-16
         8   4  9.999697E-04 -4.999849E-04 -4.999849E-04  9.999697E-04 -1.840007E-15  1.045829E-14  1.045920E-14
         8   5  9.999697E-04 -4.999849E-04 -4.999849E-04  9.999697E-04 -9.235476E-15 -1.755579E-14 -1.755698E-14
         8   6  9.999697E-04 -4.999849E-04 -4.999849E-04  9.999697E-04 -7.324133E-15  7.811201E-15 -1.868851E-14
         8   7  9.999697E-04 -4.999849E-04 -4.999849E-04  9.999697E-04 -7.323495E-15 -1.868715E-14  7.811467E-15
         8   8  9.999697E-04 -4.999849E-04 -4.999849E-04  9.999697E-04 -7.049756E-15  2.401304E-14  2.401514E-14
         9   1  9.999697E-04 -4.999849E-04 -4.999849E-04  9.999697E-04 -5.446248E-15  3.570881E-14  3.571182E-14
         9   2  9.999697E-04 -4.999849E-04 -4.999849E-04  9.999697E-04 -3.636413E-15  2.979088E-14 -7.972232E-15
         9   3  9.999697E-04 -4.999849E-04 -4.999849E-04  9.999697E-04 -3.636004E-15 -7.970143E-15  2.979005E-14
         9   4  9.999697E-04 -4.999849E-04 -4.999849E-04  9.999697E-04 -3.712608E-15 -6.713508E-15 -6.714705E-15
         9   5  9.999697E-04 -4.999849E-04 -4.999849E-04  9.999697E-04  3.839935E-14  6.177715E-14  6.177408E-14
         9   6  9.999697E-04 -4.999849E-04 -4.999849E-04  9.999697E-04  3.443242E-14 -7.483411E-14  5.026330E-14
         9   7  9.999697E-04 -4.999849E-04 -4.999849E-04  9.999697E-04  3.443238E-14  5.026529E-14 -7.483648E-14
         9   8  9.999697E-04 -4.999849E-04 -4.999849E-04  9.999697E-04  3.051668E-14 -5.019154E-14 -5.018945E-14
        10   1  9.999697E-04 -4.999849E-04 -4.999849E-04  9.999697E-04  3.636119E-15 -2.979000E-14 -7.972059E-15
        10   2  9.999697E-04 -4.999849E-04 -4.999849E-04  9.999697E-04  5.445859E-15 -3.571161E-14  3.571122E-14
        10   3  9.999697E-04 -4.999849E-04 -4.999849E-04  9.999697E-04  3.712717E-15  6.716183E-15 -6.714418E-15
        10   4  9.999697E-04 -4.999849E-04 -4.999849E-04  9.999697E-04  3.635558E-15  7.972567E-15  2.979198E-14
        10   5  9.999697E-04 -4.999849E-04 -4.999849E-04  9.999697E-04 -3.443262E-14  7.483657E-14  5.026649E-14
        10   6  9.999697E-04 -4.999849E-04 -4.999849E-04  9.999697E-04 -3.839876E-14 -6.177549E-14  6.177863E-14
        10   7  9.999697E-04 -4.999849E-04 -4.999849E-04  9.999697E-04 -3.051630E-14  5.019094E-14 -5.019025E-14
        10   8  9.999697E-04 -4.999849E-04 -4.999849E-04  9.999697E-04 -3.443210E-14 -5.026401E-14 -7.483484E-14
        11   1  9.999697E-04 -4.999849E-04 -4.999849E-04  9.999697E-04  3.635769E-15 -7.971673E-15 -2.978859E-14
        11   2  9.999697E-04 -4.999849E-04 -4.999849E-04  9.999697E-04  3.712740E-15 -6.715486E-15  6.713468E-15
        11   3  9.999697E-04 -4.999849E-04 -4.999849E-04  9.999697E-04  5.446285E-15  3.571045E-14 -3.571147E-14
        11   4  9.999697E-04 -4.999849E-04 -4.999849E-04  9.999697E-04  3.636224E-15  2.979061E-14  7.970351E-15
        11   5  9.999697E-04 -4.999849E-04 -4.999849E-04  9.999697E-04 -3.443258E-14  5.026729E-14  7.483458E-14
        11   6  9.999697E-04 -4.999849E-04 -4.999849E-04  9.999697E-04 -3.051684E-14 -5.019230E-14  5.018862E-14
        11   7  9.999697E-04 -4.999849E-04 -4.999849E-04  9.999697E-04 -3.839830E-14  6.177541E-14 -6.177669E-14
        11   8  9.999697E-04 -4.999849E-04 -4.999849E-04  9.999697E-04 -3.443293E-14 -7.483389E-14 -5.026646E-14
        12   1  9.999697E-04 -4.999849E-04 -4.999849E-04  9.999697E-04 -3.712208E-15  6.715032E-15  6.715319E-15
        12   2  9.999697E-04 -4.999849E-04 -4.999849E-04  9.999697E-04 -3.635985E-15  7.972124E-15 -2.978839E-14
        12   3  9.999697E-04 -4.999849E-04 -4.999849E-04  9.999697E-04 -3.636009E-15 -2.978909E-14  7.972097E-15
        12   4  9.999697E-04 -4.999849E-04 -4.999849E-04  9.999697E-04 -5.445902E-15 -3.571166E-14 -3.571055E-14
        12   5  9.999697E-04 -4.999849E-04 -4.999849E-04  9.999697E-04  3.051675E-14  5.018998E-14  5.018906E-14
        12   6  9.999697E-04 -4.999849E-04 -4.999849E-04  9.999697E-04  3.443238E-14 -5.026476E-14  7.483463E-14
        12   7  9.999697E-04 -4.999849E-04 -4.999849E-04  9.999697E-04  3.443274E-14  7.483423E-14 -5.026686E-14
        12   8  9.999697E-04 -4.999849E-04 -4.999849E-04  9.999697E-04  3.839954E-14 -6.177455E-14 -6.177593E-14
        13   1  9.999697E-04 -4.999849E-04 -4.999849E-04  9.999697E-04 -2.230664E-14 -6.001507E-14 -6.001453E-14
        13   2  9.999697E-04 -4.999849E-04 -4.999849E-04  9.999697E-04 -1.242500E-14 -6.603367E-14 -6.984481E-15
        13   3  9.999697E-04 -4.999849E-04 -4.999849E-04  9.999697E-04 -1.242541E-14 -6.985237E-15 -6.603300E-14
        13   4  9.999697E-04 -4.999849E-04 -4.999849E-04  9.999697E-04  1.903083E-16  9.307068E-15  9.309622E-15
        13   5  9.999697E-04 -4.999849E-04 -4.999849E-04  9.999697E-04 -1.100804E-14 -2.920170E-13 -2.920205E-13
        13   6  9.999697E-04 -4.999849E-04 -4.999849E-04  9.999697E-04 -3.840655E-14  2.462035E-13 -1.157047E-13
        13   7  9.999697E-04 -4.999849E-04 -4.999849E-04  9.999697E-04 -3.840685E-14 -1.157059E-13  2.462051E-13
        13   8  9.999697E-04 -4.999849E-04 -4.999849E-04  9.999697E-04 -5.767754E-14  1.971318E-13  1.971359E-13
        14   1  9.999697E-04 -4.999849E-04 -4.999849E-04  9.999697E-04  1.242595E-14  6.603401E-14 -6.984919E-15
        14   2  9.999697E-04 -4.999849E-04 -4.999849E-04  9.999697E-04  2.230622E-14  6.001423E-14 -6.001548E-14
        14   3  9.999697E-04 -4.999849E-04 -4.999849E-04  9.999697E-04 -1.897936E-16 -9.309881E-15  9.308730E-15
        14   4  9.999697E-04 -4.999849E-04 -4.999849E-04  9.999697E-04  1.242483E-14  6.985466E-15 -6.603446E-14
        14   5  9.999697E-04 -4.999849E-04 -4.999849E-04  9.999697E-04  3.840712E-14 -2.462050E-13 -1.157063E-13
        14   6  9.999697E-04 -4.999849E-04 -4.999849E-04  9.999697E-04  1.100715E-14  2.920170E-13 -2.920214E-13
        14   7  9.999697E-04 -4.999849E-04 -4.999849E-04  9.999697E-04  5.767720E-14 -1.971317E-13  1.971356E-13
        14   8  9.999697E-04 -4.999849E-04 -4.999849E-04  9.999697E-04  3.840674E-14  1.157067E-13  2.462053E-13
        15   1  9.999697E-04 -4.999849E-04 -4.999849E-04  9.999697E-04  1.242550E-14 -6.985991E-15  6.603698E-14
        15   2  9.999697E-04 -4.999849E-04 -4.999849E-04  9.999697E-04 -1.902114E-16  9.306457E-15 -9.309133E-15
        15   3  9.999697E-04 -4.999849E-04 -4.999849E-04  9.999697E-04  2.230653E-14 -6.001550E-14  6.001237E-14
        15   4  9.999697E-04 -4.999849E-04 -4.999849E-04  9.999697E-04  1.242511E-14 -6.603515E-14  6.985294E-15
        15   5  9.999697E-04 -4.999849E-04 -4.999849E-04  9.999697E-04  3.840752E-14 -1.157055E-13 -2.462027E-13
        15   6  9.999697E-04 -4.999849E-04 -4.999849E-04  9.999697E-04  5.767780E-14  1.971325E-13 -1.971337E-13
        15   7  9.999697E-04 -4.999849E-04 -4.999849E-04  9.999697E-04  1.100770E-14 -2.920154E-13  2.920185E-13
        15   8  9.999697E-04 -4.999849E-04 -4.999849E-04  9.999697E-04  3.840665E-14  2.462020E-13  1.157046E-13
        16   1  9.999697E-04 -4.999849E-04 -4.999849E-04  9.999697E-04  1.894002E-16 -9.310370E-15 -9.308480E-15
        16   2  9.999697E-04 -4.999849E-04 -4.999849E-04  9.999697E-04 -1.242534E-14  6.984840E-15  6.603429E-14
        16   3  9.999697E-04 -4.999849E-04 -4.999849E-04  9.999697E-04 -1.242636E-14  6.603575E-14  6.984411E-15
        16   4  9.999697E-04 -4.999849E-04 -4.999849E-04  9.999697E-04 -2.230659E-14  6.001542E-14  6.001349E-14
        16   5  9.999697E-04 -4.999849E-04 -4.999849E-04  9.999697E-04 -5.767787E-14 -1.971327E-13 -1.971352E-13
        16   6  9.999697E-04 -4.999849E-04 -4.999849E-04  9.999697E-04 -3.840692E-14  1.157053E-13 -2.462043E-13
        16   7  9.999697E-04 -4.999849E-04 -4.999849E-04  9.999697E-04 -3.840668E-14 -2.462030E-13  1.157071E-13
        16   8  9.999697E-04 -4.999849E-04 -4.999849E-04  9.999697E-04 -1.100741E-14  2.920199E-13  2.920195E-13
        17   1  9.999697E-04 -4.999849E-04 -4.999849E-04  9.999697E-04 -8.563834E-14  2.680518E-13  2.680477E-13
        17   2  9.999697E-04 -4.999849E-04 -4.999849E-04  9.999697E-04 -5.862985E-14  1.792704E-13 -7.737723E-14
        17   3  9.999697E-04 -4.999849E-04 -4.999849E-04  9.999697E-04 -5.862894E-14 -7.737740E-14  1.792724E-13
        17   4  9.999697E-04 -4.999849E-04 -4.999849E-04  9.999697E-04 -3.812346E-14 -8.136280E-14 -8.136333E-14
        17   5  9.999697E-04 -4.999849E-04 -4.999849E-04  9.999697E-04  2.790545E-13  7.541576E-13  7.541650E-13
        17   6  9.999697E-04 -4.999849E-04 -4.999849E-04  9.999697E-04  2.797340E-13 -9.171670E-13  6.257977E-13
        17   7  9.999697E-04 -4.999849E-04 -4.999849E-04  9.999697E-04  2.797337E-13  6.257977E-13 -9.171665E-13
        17   8  9.999697E-04 -4.999849E-04 -4.999849E-04  9.999697E-04  2.285457E-13 -5.431550E-13 -5.431536E-13
        18   1  9.999697E-04 -4.999849E-04 -4.999849E-04  9.999697E-04  5.863025E-14 -1.792688E-13 -7.737896E-14
        18   2  9.999697E-04 -4.999849E-04 -4.999849E-04  9.999697E-04  8.563797E-14 -2.680519E-13  2.680519E-13
        18   3  9.999697E-04 -4.999849E-04 -4.999849E-04  9.999697E-04  3.812366E-14  8.136292E-14 -8.136121E-14
        18   4  9.999697E-04 -4.999849E-04 -4.999849E-04  9.999697E-04  5.863012E-14  7.737887E-14  1.792720E-13