
                        S T E P       1


                                INCREMENT     1


 displacements (vx,vy,vz) for set N1 and time  0.1469840E-07

       100 -1.485635E-25  4.925809E-24 -3.154115E-07

                                INCREMENT     2


 displacements (vx,vy,vz) for set N1 and time  0.2939681E-07

       100 -2.078669E-24  5.000462E-23 -1.180063E-06

                                INCREMENT     3


 displacements (vx,vy,vz) for set N1 and time  0.4409521E-07

       100 -1.231853E-23  1.817383E-22 -2.378392E-06

                                INCREMENT     4


 displacements (vx,vy,vz) for set N1 and time  0.5879361E-07

       100 -3.537856E-23  3.661051E-22 -3.682210E-06

                                INCREMENT     5


 displacements (vx,vy,vz) for set N1 and time  0.7349202E-07

       100 -3.199272E-23  4.667969E-22 -5.002849E-06

                                INCREMENT     6


 displacements (vx,vy,vz) for set N1 and time  0.8819042E-07

       100  4.761769E-23  3.769556E-22 -6.453033E-06

                                INCREMENT     7


 displacements (vx,vy,vz) for set N1 and time  0.1028888E-06

       100  2.349825E-22  1.937214E-22 -8.294003E-06

                                INCREMENT     8


 displacements (vx,vy,vz) for set N1 and time  0.1175872E-06

       100  5.574992E-22  1.914131E-22 -1.079954E-05

                                INCREMENT     9


 displacements (vx,vy,vz) for set N1 and time  0.1322856E-06

       100  9.201304E-22  6.887821E-22 -1.411561E-05

                                INCREMENT    10


 displacements (vx,vy,vz) for set N1 and time  0.1469840E-06

       100  1.204887E-21  1.939057E-21 -1.819410E-05

                                INCREMENT    11


 displacements (vx,vy,vz) for set N1 and time  0.1616824E-06

       100  1.495817E-21  3.890939E-21 -2.283323E-05

                                INCREMENT    12


 displacements (vx,vy,vz) for set N1 and time  0.1763808E-06

       100  1.812668E-21  6.142539E-21 -2.779425E-05

                                INCREMENT    13


 displacements (vx,vy,vz) for set N1 and time  0.1910792E-06

       100  2.030073E-21  8.216539E-21 -3.292192E-05

                                INCREMENT    14


 displacements (vx,vy,vz) for set N1 and time  0.2057776E-06

       100  2.371689E-21  9.726939E-21 -3.819895E-05

                                INCREMENT    15


 displacements (vx,vy,vz) for set N1 and time  0.2204760E-06

       100  3.575171E-21  1.035722E-20 -4.370817E-05

                                INCREMENT    16


 displacements (vx,vy,vz) for set N1 and time  0.2351745E-06

       100  6.280082E-21  1.010507E-20 -4.953346E-05

                                INCREMENT    17


 displacements (vx,vy,vz) for set N1 and time  0.2498729E-06

       100  1.018215E-20  9.435533E-21 -5.566531E-05

                                INCREMENT    18


 displacements (vx,vy,vz) for set N1 and time  0.2645713E-06

       100  1.458137E-20  8.862837E-21 -6.197074E-05

                                INCREMENT    19


 displacements (vx,vy,vz) for set N1 and time  0.2792697E-06

       100  1.996083E-20  8.329215E-21 -6.824432E-05

                                INCREMENT    20


 displacements (vx,vy,vz) for set N1 and time  0.2939681E-06

       100  2.725015E-20  7.293259E-21 -7.430635E-05

                                INCREMENT    21


 displacements (vx,vy,vz) for set N1 and time  0.3086665E-06

       100  3.634588E-20  5.757748E-21 -8.008629E-05

                                INCREMENT    22


 displacements (vx,vy,vz) for set N1 and time  0.3233649E-06

       100  4.682169E-20  4.539590E-21 -8.564115E-05

                                INCREMENT    23


 displacements (vx,vy,vz) for set N1 and time  0.3380633E-06

       100  5.831742E-20  4.620629E-21 -9.110000E-05

                                INCREMENT    24


 displacements (vx,vy,vz) for set N1 and time  0.3527617E-06

       100  7.001851E-20  6.882902E-21 -9.657142E-05

                                INCREMENT    25


 displacements (vx,vy,vz) for set N1 and time  0.3674601E-06

       100  8.061596E-20  1.186293E-20 -1.020712E-04

                                INCREMENT    26


 displacements (vx,vy,vz) for set N1 and time  0.3821585E-06

       100  9.070753E-20  1.907215E-20 -1.075118E-04

                                INCREMENT    27


 displacements (vx,vy,vz) for set N1 and time  0.3968569E-06

       100  1.026169E-19  2.746724E-20 -1.127556E-04

                                INCREMENT    28


 displacements (vx,vy,vz) for set N1 and time  0.4115553E-06

       100  1.164657E-19  3.633151E-20 -1.176942E-04

                                INCREMENT    29


 displacements (vx,vy,vz) for set N1 and time  0.4262537E-06

       100  1.308096E-19  4.479423E-20 -1.223037E-04

                                INCREMENT    30


 displacements (vx,vy,vz) for set N1 and time  0.4409521E-06

       100  1.445360E-19  5.189520E-20 -1.266436E-04

                                INCREMENT    31


 displacements (vx,vy,vz) for set N1 and time  0.4556505E-06

       100  1.568461E-19  5.816486E-20 -1.308071E-04

                                INCREMENT    32


 displacements (vx,vy,vz) for set N1 and time  0.4703489E-06

       100  1.680140E-19  6.486096E-20 -1.348587E-04

                                INCREMENT    33


 displacements (vx,vy,vz) for set N1 and time  0.4850473E-06

       100  1.784248E-19  7.223702E-20 -1.388025E-04

                                INCREMENT    34


 displacements (vx,vy,vz) for set N1 and time  0.4997457E-06

       100  1.872042E-19  8.007488E-20 -1.426014E-04

                                INCREMENT    35


 displacements (vx,vy,vz) for set N1 and time  0.5000000E-06

       100  1.873356E-19  8.021367E-20 -1.426656E-04
