
                        S T E P       1


                                INCREMENT     1


 displacements (vx,vy,vz) for set NALL and time  0.1000000E+01

         1  0.000000E+00  0.000000E+00  0.000000E+00
         2  0.000000E+00  0.000000E+00  0.000000E+00
         3  0.000000E+00  0.000000E+00  0.000000E+00
         4  0.000000E+00  0.000000E+00  0.000000E+00
         5 -2.127579E-05  7.213098E-02  7.081258E-03
         6  2.127579E-05  7.213098E-02  7.081258E-03
         7 -2.127579E-05  7.213098E-02 -7.081258E-03
         8  2.127579E-05  7.213098E-02 -7.081258E-03
         9  0.000000E+00  0.000000E+00  0.000000E+00
        10  0.000000E+00  0.000000E+00  0.000000E+00
        11  0.000000E+00  0.000000E+00  0.000000E+00
        12  0.000000E+00  0.000000E+00  0.000000E+00
        13  0.000000E+00  0.000000E+00  0.000000E+00
        14  0.000000E+00  0.000000E+00  0.000000E+00
        15  0.000000E+00  0.000000E+00  0.000000E+00
        16  0.000000E+00  0.000000E+00  0.000000E+00
        17  0.000000E+00  0.000000E+00  0.000000E+00
        18  0.000000E+00  0.000000E+00  0.000000E+00
        19  0.000000E+00  0.000000E+00  0.000000E+00
        20  0.000000E+00  0.000000E+00  0.000000E+00
        21 -1.005914E-05  7.207616E-02  7.073570E-03
        22  7.493326E-14  7.207049E-02  7.060946E-03
        23  1.005914E-05  7.207616E-02  7.073570E-03
        24 -2.029014E-06  7.208640E-02  3.523178E-03
        25  7.551533E-14  7.205656E-02 -7.331074E-15
        26  2.029014E-06  7.208640E-02 -3.523178E-03
        27 -1.005914E-05  7.207616E-02 -7.073570E-03
        28  7.628076E-14  7.207049E-02 -7.060946E-03
        29  1.005914E-05  7.207616E-02 -7.073570E-03
        30 -2.029014E-06  7.208640E-02 -3.523178E-03
        31  7.568143E-14  7.205656E-02  7.768709E-15
        32  2.029014E-06  7.208640E-02  3.523178E-03
        33 -1.288475E-04  3.145868E-04  4.969014E-04
        34 -1.277913E-04  1.064588E-03  1.002778E-03
        35 -1.831995E-04  2.534699E-03  1.818721E-03
        36 -1.517469E-04  4.756514E-03  2.591836E-03
        37 -1.497761E-04  7.762368E-03  3.304686E-03
        38 -1.331372E-04  1.142704E-02  3.958064E-03
        39 -1.219321E-04  1.572680E-02  4.547103E-03
        40 -1.077579E-04  2.057673E-02  5.075111E-03
        41 -9.475389E-05  2.592708E-02  5.540175E-03
        42 -8.155258E-05  3.171103E-02  5.944160E-03
        43 -6.695584E-05  3.786690E-02  6.285434E-03
        44 -5.377187E-05  4.433937E-02  6.566179E-03
        45 -4.143041E-05  5.104418E-02  6.781209E-03
        46 -3.364600E-05  5.795315E-02  6.936923E-03
        47 -4.267232E-06  6.497694E-02  7.031024E-03
        48  4.267232E-06  6.497694E-02  7.031024E-03
        49  3.364600E-05  5.795315E-02  6.936923E-03
        50  4.143041E-05  5.104418E-02  6.781209E-03
        51  5.377187E-05  4.433937E-02  6.566179E-03
        52  6.695584E-05  3.786690E-02  6.285434E-03
        53  8.155258E-05  3.171103E-02  5.944160E-03
        54  9.475389E-05  2.592708E-02  5.540175E-03
        55  1.077579E-04  2.057673E-02  5.075111E-03
        56  1.219321E-04  1.572680E-02  4.547103E-03
        57  1.331372E-04  1.142704E-02  3.958064E-03
        58  1.497761E-04  7.762368E-03  3.304686E-03
        59  1.517469E-04  4.756514E-03  2.591836E-03
        60  1.831995E-04  2.534699E-03  1.818721E-03
        61  1.277913E-04  1.064588E-03  1.002778E-03
        62  1.288475E-04  3.145868E-04  4.969014E-04
        63  1.288475E-04  3.145868E-04 -4.969014E-04
        64  1.277913E-04  1.064588E-03 -1.002778E-03
        65  1.831995E-04  2.534699E-03 -1.818721E-03
        66  1.517469E-04  4.756514E-03 -2.591836E-03
        67  1.497761E-04  7.762368E-03 -3.304686E-03
        68  1.331372E-04  1.142704E-02 -3.958064E-03
        69  1.219321E-04  1.572680E-02 -4.547103E-03
        70  1.077579E-04  2.057673E-02 -5.075111E-03
        71  9.475389E-05  2.592708E-02 -5.540175E-03
        72  8.155258E-05  3.171103E-02 -5.944160E-03
        73  6.695584E-05  3.786690E-02 -6.285434E-03
        74  5.377187E-05  4.433937E-02 -6.566179E-03
        75  4.143041E-05  5.104418E-02 -6.781209E-03
        76  3.364600E-05  5.795315E-02 -6.936923E-03
        77  4.267232E-06  6.497694E-02 -7.031024E-03
        78 -1.288475E-04  3.145868E-04 -4.969014E-04
        79 -1.277913E-04  1.064588E-03 -1.002778E-03
        80 -1.831995E-04  2.534699E-03 -1.818721E-03
        81 -1.517469E-04  4.756514E-03 -2.591836E-03
        82 -1.497761E-04  7.762368E-03 -3.304686E-03
        83 -1.331372E-04  1.142704E-02 -3.958064E-03
        84 -1.219321E-04  1.572680E-02 -4.547103E-03
        85 -1.077579E-04  2.057673E-02 -5.075111E-03
        86 -9.475389E-05  2.592708E-02 -5.540175E-03
        87 -8.155258E-05  3.171103E-02 -5.944160E-03
        88 -6.695584E-05  3.786690E-02 -6.285434E-03
        89 -5.377187E-05  4.433937E-02 -6.566179E-03
        90 -4.143041E-05  5.104418E-02 -6.781209E-03
        91 -3.364600E-05  5.795315E-02 -6.936923E-03
        92 -4.267232E-06  6.497694E-02 -7.031024E-03
        93  0.000000E+00  0.000000E+00  0.000000E+00
        94  0.000000E+00  0.000000E+00  0.000000E+00
        95  0.000000E+00  0.000000E+00  0.000000E+00
        96  0.000000E+00  0.000000E+00  0.000000E+00
        97  0.000000E+00  0.000000E+00  0.000000E+00
        98  7.523042E-14  7.205717E-02  3.524417E-03
        99  7.564947E-14  7.205451E-02  3.954488E-15
       100  7.559497E-14  7.204539E-02  1.844562E-16
       101  7.554118E-14  7.205451E-02 -3.581343E-15
       102  7.593835E-14  7.205717E-02 -3.524417E-03
       103  1.296321E-16  3.707036E-04  4.834391E-04
       104  6.334123E-05  1.123937E-03  9.959917E-04
       105  8.306750E-16  1.138691E-03  1.002449E-03
       106 -6.334123E-05  1.123937E-03  9.959917E-04
       107  2.148296E-15  2.621204E-03  1.815705E-03
       108  7.596271E-05  4.818180E-03  2.599091E-03
       109  4.323718E-15  4.839005E-03  2.599575E-03
       110 -7.596271E-05  4.818180E-03  2.599091E-03
       111  7.228349E-15  7.835183E-03  3.305628E-03
       112  6.649766E-05  1.147836E-02  3.961691E-03
       113  1.089298E-14  1.149601E-02  3.963046E-03
       114 -6.649766E-05  1.147836E-02  3.961691E-03
       115  1.524655E-14  1.578728E-02  4.549764E-03
       116  5.389033E-05  2.061728E-02  5.078467E-03
       117  2.023208E-14  2.063097E-02  5.078219E-03
       118 -5.389033E-05  2.061728E-02  5.078467E-03
       119  2.576064E-14  2.597464E-02  5.543045E-03
       120  4.075945E-05  3.174148E-02  5.947355E-03
       121  3.177789E-14  3.175079E-02  5.947146E-03
       122 -4.075945E-05  3.174148E-02  5.947355E-03
       123  3.831148E-14  3.790115E-02  6.288302E-03
       124  2.694257E-05  4.435562E-02  6.568966E-03
       125  4.527837E-14  4.436172E-02  6.568611E-03
       126 -2.694257E-05  4.435562E-02  6.568966E-03
       127  5.248406E-14  5.106842E-02  6.784141E-03
       128  1.653592E-05  5.796618E-02  6.940574E-03
       129  5.993665E-14  5.795984E-02  6.940365E-03
       130 -1.653592E-05  5.796618E-02  6.940574E-03
       131  6.739086E-14  6.498463E-02  7.033067E-03
       132  3.419694E-16  1.923935E-04 -4.600022E-16
       133 -6.402965E-05  9.921054E-04  4.938029E-04
       134  1.082623E-15  9.893102E-04 -9.671083E-16
       135  6.402965E-05  9.921054E-04 -4.938029E-04
       136  2.527113E-15  2.394406E-03 -1.757634E-15
       137 -7.603286E-05  4.682416E-03  1.290167E-03
       138  4.708151E-15  4.664542E-03 -2.540177E-15
       139  7.603286E-05  4.682416E-03 -1.290167E-03
       140  7.679401E-15  7.651285E-03 -3.262039E-15
       141 -6.652896E-05  1.135965E-02  1.972676E-03
       142  1.134380E-14  1.134025E-02 -3.950769E-15
       143  6.652896E-05  1.135965E-02 -1.972676E-03
       144  1.571914E-14  1.563866E-02 -4.601684E-15
       145 -5.393488E-05  2.052067E-02  2.531292E-03
       146  2.070036E-14  2.050275E-02 -5.187935E-15
       147  5.393488E-05  2.052067E-02 -2.531292E-03
       148  2.625331E-14  2.586016E-02 -5.711923E-15
       149 -4.057823E-05  3.166782E-02  2.966008E-03
       150  3.231096E-14  3.165304E-02 -6.187341E-15
       151  4.057823E-05  3.166782E-02 -2.966008E-03
       152  3.892068E-14  3.782011E-02 -6.673806E-15
       153 -2.769440E-05  4.430646E-02  3.276152E-03
       154  4.590891E-14  4.429353E-02 -6.952772E-15
       155  2.769440E-05  4.430646E-02 -3.276152E-03
       156  5.312019E-14  5.102167E-02 -7.166360E-15
       157 -1.374702E-05  5.793560E-02  3.464759E-03
       158  6.049230E-14  5.792405E-02 -7.285323E-15
       159  1.374702E-05  5.793560E-02 -3.464759E-03
       160  6.804179E-14  6.497221E-02 -7.299352E-15
       161  2.306060E-16  3.707036E-04 -4.834391E-04
       162  6.334123E-05  1.123937E-03 -9.959917E-04
       163  1.037446E-15  1.138691E-03 -1.002449E-03
       164 -6.334123E-05  1.123937E-03 -9.959917E-04
       165  2.461347E-15  2.621204E-03 -1.815705E-03
       166  7.596271E-05  4.818180E-03 -2.599091E-03
       167  4.741921E-15  4.839005E-03 -2.599575E-03
       168 -7.596271E-05  4.818180E-03 -2.599091E-03
       169  7.744259E-15  7.835183E-03 -3.305628E-03
       170  6.649766E-05  1.147836E-02 -3.961691E-03
       171  1.147265E-14  1.149601E-02 -3.963046E-03
       172 -6.649766E-05  1.147836E-02 -3.961691E-03
       173  1.584979E-14  1.578728E-02 -4.549764E-03
       174  5.389033E-05  2.061728E-02 -5.078467E-03
       175  2.087284E-14  2.063097E-02 -5.078219E-03
       176 -5.389033E-05  2.061728E-02 -5.078467E-03
       177  2.649896E-14  2.597464E-02 -5.543045E-03
       178  4.075945E-05  3.174148E-02 -5.947355E-03
       179  3.266051E-14  3.175079E-02 -5.947146E-03
       180 -4.075945E-05  3.174148E-02 -5.947355E-03
       181  3.933717E-14  3.790115E-02 -6.288302E-03
       182  2.694257E-05  4.435562E-02 -6.568966E-03
       183  4.642814E-14  4.436172E-02 -6.568611E-03
       184 -2.694257E-05  4.435562E-02 -6.568966E-03
       185  5.367318E-14  5.106842E-02 -6.784141E-03
       186  1.653592E-05  5.796618E-02 -6.940574E-03
       187  6.112992E-14  5.795984E-02 -6.940365E-03
       188 -1.653592E-05  5.796618E-02 -6.940574E-03
       189  6.862687E-14  6.498463E-02 -7.033067E-03
       190  3.443548E-16  1.923935E-04  4.686343E-16
       191 -6.402965E-05  9.921054E-04 -4.938029E-04
       192  1.085927E-15  9.893102E-04  9.888127E-16
       193  6.402965E-05  9.921054E-04  4.938029E-04
       194  2.532764E-15  2.394406E-03  1.803787E-15
       195 -7.603286E-05  4.682416E-03 -1.290167E-03
       196  4.708798E-15  4.664542E-03  2.602979E-15
       197  7.603286E-05  4.682416E-03  1.290167E-03
       198  7.690063E-15  7.651285E-03  3.340601E-15
       199 -6.652896E-05  1.135965E-02 -1.972676E-03
       200  1.134753E-14  1.134025E-02  4.060151E-15
       201  6.652896E-05  1.135965E-02  1.972676E-03
       202  1.571909E-14  1.563866E-02  4.720469E-15
       203 -5.393488E-05  2.052067E-02 -2.531292E-03
       204  2.069444E-14  2.050275E-02  5.369016E-15
       205  5.393488E-05  2.052067E-02  2.531292E-03
       206  2.628102E-14  2.586016E-02  5.896809E-15
       207 -4.057823E-05  3.166782E-02 -2.966008E-03
       208  3.234740E-14  3.165304E-02  6.423458E-15
       209  4.057823E-05  3.166782E-02  2.966008E-03
       210  3.892425E-14  3.782011E-02  6.845436E-15
       211 -2.769440E-05  4.430646E-02 -3.276152E-03
       212  4.590198E-14  4.429353E-02  7.206441E-15
       213  2.769440E-05  4.430646E-02  3.276152E-03
       214  5.313232E-14  5.102167E-02  7.441747E-15
       215 -1.374702E-05  5.793560E-02 -3.464759E-03
       216  6.056618E-14  5.792405E-02  7.587680E-15
       217  1.374702E-05  5.793560E-02  3.464759E-03
       218  6.801911E-14  6.497221E-02  7.688952E-15
       219  2.659492E-16  2.504791E-04  4.304984E-18
       220  9.700879E-16  1.063982E-03  4.880277E-04
       221  1.040319E-15  1.047153E-03  4.858839E-16
       222  1.041544E-15  1.060135E-03  9.107669E-18
       223  1.038923E-15  1.047153E-03 -4.655361E-16
       224  1.073561E-15  1.063982E-03 -4.880277E-04
       225  2.423910E-15  2.478861E-03  2.034234E-17
       226  4.515340E-15  4.763932E-03  1.296648E-03
       227  4.661202E-15  4.725398E-03  1.314168E-15
       228  4.653533E-15  4.745081E-03  3.046808E-17
       229  4.659651E-15  4.725398E-03 -1.252981E-15
       230  4.725266E-15  4.763932E-03 -1.296648E-03
       231  7.600311E-15  7.725686E-03  3.869670E-17
       232  1.112065E-14  1.142762E-02  1.976234E-03
       233  1.129617E-14  1.139054E-02  2.054190E-15
       234  1.128546E-14  1.140730E-02  5.301199E-17
       235  1.129652E-14  1.139054E-02 -1.942267E-15
       236  1.141026E-14  1.142762E-02 -1.976234E-03
       237  1.564673E-14  1.569962E-02  6.300668E-17
       238  2.044533E-14  2.057483E-02  2.534410E-03
       239  2.066121E-14  2.054331E-02  2.713379E-15
       240  2.065308E-14  2.055675E-02  7.666233E-17
       241  2.066118E-14  2.054331E-02 -2.552318E-15
       242  2.077388E-14  2.057483E-02 -2.534410E-03
       243  2.621105E-14  2.590741E-02  1.071192E-16
       244  3.205791E-14  3.170824E-02  2.968852E-03
       245  3.230765E-14  3.168377E-02  3.251326E-15
       246  3.228324E-14  3.169436E-02  8.017675E-17
       247  3.228667E-14  3.168377E-02 -3.050511E-15
       248  3.250674E-14  3.170824E-02 -2.968852E-03
       249  3.887193E-14  3.785313E-02  1.186388E-16
       250  4.559396E-14  4.433232E-02  3.279276E-03
       251  4.588620E-14  4.431478E-02  3.644290E-15
       252  4.587346E-14  4.432204E-02  1.109689E-16
       253  4.587303E-14  4.431478E-02 -3.413665E-15
       254  4.614055E-14  4.433232E-02 -3.279276E-03
       255  5.310553E-14  5.104135E-02  1.266348E-16
       256  6.022873E-14  5.794554E-02  3.466088E-03
       257  6.053231E-14  5.793477E-02  3.888301E-15
       258  6.050182E-14  5.794053E-02  1.814921E-16
       259  6.049675E-14  5.793477E-02 -3.539297E-15
       260  6.083068E-14  5.794554E-02 -3.466088E-03
       261  6.803141E-14  6.497390E-02  1.565464E-16

 stresses (elem, integ.pnt.,sxx,syy,szz,sxy,sxz,syz) for set EALL and time  0.1000000E+01

         1   1  4.824446E+01  4.987566E+01  3.386188E+02 -3.981493E+00  1.915665E+01  1.270118E+01
         1   2  4.628350E+01  4.794259E+01  3.308654E+02  7.541369E-01  4.473708E+00  2.226079E+01
         1   3  2.498428E+00 -5.909761E+00  7.884321E+01 -3.748563E+00  4.993467E+00 -4.766100E+00
         1   4  2.017940E+00 -6.116194E+00  7.626872E+01  9.872692E-01  1.054420E+00  5.804131E+00
         1   5 -2.306764E+01 -1.869976E+01  3.049843E+02 -4.249935E-01 -6.733006E+00 -8.525027E-01
         1   6 -2.018490E+01 -1.679640E+01  3.110954E+02  9.382053E-03 -6.616521E-01  9.719411E-01
         1   7 -8.136911E+00 -8.069484E+00  7.832188E+01 -5.131792E-01 -2.342663E+00  1.578308E+01
         1   8 -7.390885E+00 -7.384113E+00  7.939102E+01 -7.804916E-02 -7.206132E-01  2.009749E+01
         2   1  4.628350E+01  4.794259E+01  3.308654E+02 -7.541369E-01 -4.473708E+00  2.226079E+01
         2   2  4.824446E+01  4.987566E+01  3.386188E+02  3.981493E+00 -1.915665E+01  1.270118E+01
         2   3  2.017940E+00 -6.116194E+00  7.626872E+01 -9.872692E-01 -1.054420E+00  5.804131E+00
         2   4  2.498428E+00 -5.909761E+00  7.884321E+01  3.748563E+00 -4.993467E+00 -4.766100E+00
         2   5 -2.018490E+01 -1.679640E+01  3.110954E+02 -9.382053E-03  6.616521E-01  9.719411E-01
         2   6 -2.306764E+01 -1.869976E+01  3.049843E+02  4.249935E-01  6.733006E+00 -8.525027E-01
         2   7 -7.390885E+00 -7.384113E+00  7.939102E+01  7.804916E-02  7.206132E-01  2.009749E+01
         2   8 -8.136911E+00 -8.069484E+00  7.832188E+01  5.131792E-01  2.342663E+00  1.578308E+01
         3   1 -2.498428E+00  5.909761E+00 -7.884321E+01 -3.748563E+00 -4.993467E+00 -4.766100E+00
         3   2 -2.017940E+00  6.116194E+00 -7.626872E+01  9.872692E-01 -1.054420E+00  5.804131E+00
         3   3 -4.824446E+01 -4.987566E+01 -3.386188E+02 -3.981493E+00 -1.915665E+01  1.270118E+01
         3   4 -4.628350E+01 -4.794259E+01 -3.308654E+02  7.541369E-01 -4.473708E+00  2.226079E+01
         3   5  8.136911E+00  8.069484E+00 -7.832188E+01 -5.131792E-01  2.342663E+00  1.578308E+01
         3   6  7.390885E+00  7.384113E+00 -7.939102E+01 -7.804916E-02  7.206132E-01  2.009749E+01
         3   7  2.306764E+01  1.869976E+01 -3.049843E+02 -4.249935E-01  6.733006E+00 -8.525027E-01
         3   8  2.018490E+01  1.679640E+01 -3.110954E+02  9.382053E-03  6.616521E-01  9.719411E-01
         4   1 -2.017940E+00  6.116194E+00 -7.626872E+01 -9.872692E-01  1.054420E+00  5.804131E+00
         4   2 -2.498428E+00  5.909761E+00 -7.884321E+01  3.748563E+00  4.993467E+00 -4.766100E+00
         4   3 -4.628350E+01 -4.794259E+01 -3.308654E+02 -7.541369E-01  4.473708E+00  2.226079E+01
         4   4 -4.824446E+01 -4.987566E+01 -3.386188E+02  3.981493E+00  1.915665E+01  1.270118E+01
         4   5  7.390885E+00  7.384113E+00 -7.939102E+01  7.804916E-02 -7.206132E-01  2.009749E+01
         4   6  8.136911E+00  8.069484E+00 -7.832188E+01  5.131792E-01 -2.342663E+00  1.578308E+01
         4   7  2.018490E+01  1.679640E+01 -3.110954E+02 -9.382053E-03 -6.616521E-01  9.719411E-01
         4   8  2.306764E+01  1.869976E+01 -3.049843E+02  4.249935E-01 -6.733006E+00 -8.525027E-01
         5   1  1.454375E+01  8.194867E+00  2.880695E+02  1.022600E+00  6.456260E+00  8.397302E+00
         5   2  1.536210E+01  6.933920E+00  2.878102E+02 -1.011588E+00  3.458817E+00  9.607769E+00
         5   3  8.022595E+00  1.242187E+01  8.160921E+01  5.594443E-01  1.254079E+00  7.033458E+00
         5   4  8.503631E+00  1.218760E+01  8.213229E+01 -1.474798E+00  4.500133E-01  1.096147E+01
         5   5 -7.247732E+00 -6.732171E+00  2.628989E+02 -1.095380E+00 -4.908098E+00  1.852420E+00
         5   6 -5.279769E+00 -5.481002E+00  2.667358E+02  1.395730E-01 -1.690442E+00  1.178820E+00
         5   7 -3.645797E+00 -6.394892E+00  6.904029E+01 -1.454153E+00 -1.206294E+00  1.711466E+01
         5   8 -2.935448E+00 -6.156365E+00  7.058222E+01 -2.220154E-01 -3.450288E-01  1.585410E+01
         6   1  1.536210E+01  6.933920E+00  2.878102E+02  1.011588E+00 -3.458817E+00  9.607769E+00
         6   2  1.454375E+01  8.194867E+00  2.880695E+02 -1.022600E+00 -6.456260E+00  8.397302E+00
         6   3  8.503631E+00  1.218760E+01  8.213229E+01  1.474798E+00 -4.500133E-01  1.096147E+01
         6   4  8.022595E+00  1.242187E+01  8.160921E+01 -5.594443E-01 -1.254079E+00  7.033458E+00
         6   5 -5.279769E+00 -5.481002E+00  2.667358E+02 -1.395730E-01  1.690442E+00  1.178820E+00
         6   6 -7.247732E+00 -6.732171E+00  2.628989E+02  1.095380E+00  4.908098E+00  1.852420E+00
         6   7 -2.935448E+00 -6.156365E+00  7.058222E+01  2.220154E-01  3.450288E-01  1.585410E+01
         6   8 -3.645797E+00 -6.394892E+00  6.904029E+01  1.454153E+00  1.206294E+00  1.711466E+01
         7   1 -8.022595E+00 -1.242187E+01 -8.160921E+01  5.594443E-01 -1.254079E+00  7.033458E+00
         7   2 -8.503631E+00 -1.218760E+01 -8.213229E+01 -1.474798E+00 -4.500133E-01  1.096147E+01
         7   3 -1.454375E+01 -8.194867E+00 -2.880695E+02  1.022600E+00 -6.456260E+00  8.397302E+00
         7   4 -1.536210E+01 -6.933920E+00 -2.878102E+02 -1.011588E+00 -3.458817E+00  9.607769E+00
         7   5  3.645797E+00  6.394892E+00 -6.904029E+01 -1.454153E+00  1.206294E+00  1.711466E+01
         7   6  2.935448E+00  6.156365E+00 -7.058222E+01 -2.220154E-01  3.450288E-01  1.585410E+01
         7   7  7.247732E+00  6.732171E+00 -2.628989E+02 -1.095380E+00  4.908098E+00  1.852420E+00
         7   8  5.279769E+00  5.481002E+00 -2.667358E+02  1.395730E-01  1.690442E+00  1.178820E+00
         8   1 -8.503631E+00 -1.218760E+01 -8.213229E+01  1.474798E+00  4.500133E-01  1.096147E+01
         8   2 -8.022595E+00 -1.242187E+01 -8.160921E+01 -5.594443E-01  1.254079E+00  7.033458E+00
         8   3 -1.536210E+01 -6.933920E+00 -2.878102E+02  1.011588E+00  3.458817E+00  9.607769E+00
         8   4 -1.454375E+01 -8.194867E+00 -2.880695E+02 -1.022600E+00  6.456260E+00  8.397302E+00
         8   5  2.935448E+00  6.156365E+00 -7.058222E+01  2.220154E-01 -3.450288E-01  1.585410E+01
         8   6  3.645797E+00  6.394892E+00 -6.904029E+01  1.454153E+00 -1.206294E+00  1.711466E+01
         8   7  5.279769E+00  5.481002E+00 -2.667358E+02 -1.395730E-01 -1.690442E+00  1.178820E+00
         8   8  7.247732E+00  6.732171E+00 -2.628989E+02  1.095380E+00 -4.908098E+00  1.852420E+00
         9   1  3.953755E+00  4.878712E+00  2.474889E+02  7.519541E-01  2.272488E+00  8.282813E+00
         9   2  2.635378E+00  3.806442E+00  2.452311E+02  1.346398E-02 -2.970282E-01  7.183056E+00
         9   3  1.804462E+00  3.441212E+00  6.703380E+01  7.422976E-01  8.806619E-01  1.141407E+01
         9   4  1.440685E+00  3.232757E+00  6.635619E+01  3.822002E-03  1.992390E-01  9.120057E+00
         9   5 -1.401948E+00 -2.154643E+00  2.215141E+02 -3.431650E-01 -1.450510E+00  4.132650E+00
         9   6 -6.000460E-01 -1.349704E+00  2.227728E+02 -1.618006E-01 -8.792620E-01  3.695887E+00
         9   7 -1.087501E+00 -2.275570E+00  5.857852E+01 -2.889057E-01 -2.267132E-01  1.494360E+01
         9   8 -8.677627E-01 -1.941872E+00  5.885854E+01 -9.703349E-02 -6.657076E-02  1.322786E+01
        10   1  2.635378E+00  3.806442E+00  2.452311E+02 -1.346398E-02  2.970282E-01  7.183056E+00
        10   2  3.953755E+00  4.878712E+00  2.474889E+02 -7.519541E-01 -2.272488E+00  8.282813E+00
        10   3  1.440685E+00  3.232757E+00  6.635619E+01 -3.822002E-03 -1.992390E-01  9.120057E+00
        10   4  1.804462E+00  3.441212E+00  6.703380E+01 -7.422976E-01 -8.806619E-01  1.141407E+01
        10   5 -6.000460E-01 -1.349704E+00  2.227728E+02  1.618006E-01  8.792620E-01  3.695887E+00
        10   6 -1.401948E+00 -2.154643E+00  2.215141E+02  3.431650E-01  1.450510E+00  4.132650E+00
        10   7 -8.677627E-01 -1.941872E+00  5.885854E+01  9.703349E-02  6.657076E-02  1.322786E+01
        10   8 -1.087501E+00 -2.275570E+00  5.857852E+01  2.889057E-01  2.267132E-01  1.494360E+01
        11   1 -1.804462E+00 -3.441212E+00 -6.703380E+01  7.422976E-01 -8.806619E-01  1.141407E+01
        11   2 -1.440685E+00 -3.232757E+00 -6.635619E+01  3.822002E-03 -1.992390E-01  9.120057E+00
        11   3 -3.953755E+00 -4.878712E+00 -2.474889E+02  7.519541E-01 -2.272488E+00  8.282813E+00
        11   4 -2.635378E+00 -3.806442E+00 -2.452311E+02  1.346398E-02  2.970282E-01  7.183056E+00
        11   5  1.087501E+00  2.275570E+00 -5.857852E+01 -2.889057E-01  2.267132E-01  1.494360E+01
        11   6  8.677627E-01  1.941872E+00 -5.885854E+01 -9.703349E-02  6.657076E-02  1.322786E+01
        11   7  1.401948E+00  2.154643E+00 -2.215141E+02 -3.431650E-01  1.450510E+00  4.132650E+00
        11   8  6.000460E-01  1.349704E+00 -2.227728E+02 -1.618006E-01  8.792620E-01  3.695887E+00
        12   1 -1.440685E+00 -3.232757E+00 -6.635619E+01 -3.822002E-03  1.992390E-01  9.120057E+00
        12   2 -1.804462E+00 -3.441212E+00 -6.703380E+01 -7.422976E-01  8.806619E-01  1.141407E+01
        12   3 -2.635378E+00 -3.806442E+00 -2.452311E+02 -1.346398E-02 -2.970282E-01  7.183056E+00
        12   4 -3.953755E+00 -4.878712E+00 -2.474889E+02 -7.519541E-01  2.272488E+00  8.282813E+00
        12   5  8.677627E-01  1.941872E+00 -5.885854E+01  9.703349E-02 -6.657076E-02  1.322786E+01
        12   6  1.087501E+00  2.275570E+00 -5.857852E+01  2.889057E-01 -2.267132E-01  1.494360E+01
        12   7  6.000460E-01  1.349704E+00 -2.227728E+02  1.618006E-01 -8.792620E-01  3.695887E+00
        12   8  1.401948E+00  2.154643E+00 -2.215141E+02  3.431650E-01 -1.450510E+00  4.132650E+00
        13   1  7.615603E-01  1.291490E+00  2.041341E+02  1.595447E-01 -1.980403E-01  6.390715E+00
        13   2  5.177444E-01  7.501789E-01  2.034542E+02  1.494223E-01 -1.149142E-01  5.073696E+00
        13   3  7.967270E-01  1.809423E+00  5.529757E+01  9.406589E-02  9.594649E-02  1.320931E+01
        13   4  6.964974E-01  1.541561E+00  5.510050E+01  8.393959E-02  1.148228E-01  1.132628E+01
        13   5 -4.517883E-01 -9.477159E-01  1.792421E+02 -1.252108E-01 -7.262877E-01  5.071432E+00
        13   6 -2.136702E-01 -5.834933E-01  1.795785E+02 -2.580432E-02 -6.032832E-01  4.276687E+00
        13   7 -4.170916E-01 -9.918661E-01  4.775753E+01 -6.113587E-02 -1.023539E-02  1.425472E+01
        13   8 -2.845114E-01 -7.532853E-01  4.793644E+01 -9.453620E-04  1.932631E-02  1.239716E+01
        14   1  5.177444E-01  7.501789E-01  2.034542E+02 -1.494223E-01  1.149142E-01  5.073696E+00
        14   2  7.615603E-01  1.291490E+00  2.041341E+02 -1.595447E-01  1.980403E-01  6.390715E+00
        14   3  6.964974E-01  1.541561E+00  5.510050E+01 -8.393959E-02 -1.148228E-01  1.132628E+01
        14   4  7.967270E-01  1.809423E+00  5.529757E+01 -9.406589E-02 -9.594649E-02  1.320931E+01
        14   5 -2.136702E-01 -5.834933E-01  1.795785E+02  2.580432E-02  6.032832E-01  4.276687E+00
        14   6 -4.517883E-01 -9.477159E-01  1.792421E+02  1.252108E-01  7.262877E-01  5.071432E+00
        14   7 -2.845114E-01 -7.532853E-01  4.793644E+01  9.453620E-04 -1.932631E-02  1.239716E+01
        14   8 -4.170916E-01 -9.918661E-01  4.775753E+01  6.113587E-02  1.023539E-02  1.425472E+01
        15   1 -7.967270E-01 -1.809423E+00 -5.529757E+01  9.406589E-02 -9.594649E-02  1.320931E+01
        15   2 -6.964974E-01 -1.541561E+00 -5.510050E+01  8.393959E-02 -1.148228E-01  1.132628E+01
        15   3 -7.615603E-01 -1.291490E+00 -2.041341E+02  1.595447E-01  1.980403E-01  6.390715E+00
        15   4 -5.177444E-01 -7.501789E-01 -2.034542E+02  1.494223E-01  1.149142E-01  5.073696E+00
        15   5  4.170916E-01  9.918661E-01 -4.775753E+01 -6.113587E-02  1.023539E-02  1.425472E+01
        15   6  2.845114E-01  7.532853E-01 -4.793644E+01 -9.453620E-04 -1.932631E-02  1.239716E+01
        15   7  4.517883E-01  9.477159E-01 -1.792421E+02 -1.252108E-01  7.262877E-01  5.071432E+00
        15   8  2.136702E-01  5.834933E-01 -1.795785E+02 -2.580432E-02  6.032832E-01  4.276687E+00
        16   1 -6.964974E-01 -1.541561E+00 -5.510050E+01 -8.393959E-02  1.148228E-01  1.132628E+01
        16   2 -7.967270E-01 -1.809423E+00 -5.529757E+01 -9.406589E-02  9.594649E-02  1.320931E+01
        16   3 -5.177444E-01 -7.501789E-01 -2.034542E+02 -1.494223E-01 -1.149142E-01  5.073696E+00
        16   4 -7.615603E-01 -1.291490E+00 -2.041341E+02 -1.595447E-01 -1.980403E-01  6.390715E+00
        16   5  2.845114E-01  7.532853E-01 -4.793644E+01  9.453620E-04  1.932631E-02  1.239716E+01
        16   6  4.170916E-01  9.918661E-01 -4.775753E+01  6.113587E-02 -1.023539E-02  1.425472E+01
        16   7  2.136702E-01  5.834933E-01 -1.795785E+02  2.580432E-02 -6.032832E-01  4.276687E+00
        16   8  4.517883E-01  9.477159E-01 -1.792421E+02  1.252108E-01 -7.262877E-01  5.071432E+00
        17   1  2.932650E-01  7.233453E-01  1.614068E+02  9.986927E-02 -3.932395E-01  5.783351E+00
        17   2  1.352134E-01  4.435492E-01  1.612160E+02  5.329861E-02 -5.260157E-01  4.886809E+00
        17   3  2.822091E-01  6.970973E-01  4.346337E+01  2.521294E-02  6.942733E-02  1.363376E+01
        17   4  1.586970E-01  4.301751E-01  4.332253E+01 -2.135668E-02  4.288085E-02  1.169608E+01
        17   5 -2.595561E-01 -4.678455E-01  1.367596E+02 -2.997091E-02 -4.903155E-01  5.647640E+00
        17   6 -1.493156E-01 -2.875539E-01  1.368496E+02 -2.170345E-01 -5.436378E-01  4.602152E+00
        17   7 -2.358817E-01 -7.230491E-01  3.644014E+01  5.861646E-02  2.827081E-02  1.378293E+01
        17   8 -1.022683E-01 -3.953504E-01  3.655976E+01  1.790889E-02  2.301390E-02  1.196728E+01
        18   1  1.352134E-01  4.435492E-01  1.612160E+02 -5.329861E-02  5.260157E-01  4.886809E+00
        18   2  2.932650E-01  7.233453E-01  1.614068E+02 -9.986927E-02  3.932395E-01  5.783351E+00
        18   3  1.586970E-01  4.301751E-01  4.332253E+01  2.135668E-02 -4.288085E-02  1.169608E+01
        18   4  2.822091E-01  6.970973E-01  4.346337E+01 -2.521294E-02 -6.942733E-02  1.363376E+01
        18   5 -1.493156E-01 -2.875539E-01  1.368496E+02  2.170345E-01  5.436378E-01  4.602152E+00
        18   6 -2.595561E-01 -4.678455E-01  1.367596E+02  2.997091E-02  4.903155E-01  5.647640E+00
        18   7 -1.022683E-01 -3.953504E-01  3.655976E+01 -1.790889E-02 -2.301390E-02  1.196728E+01
        18   8 -2.358817E-01 -7.230491E-01  3.644014E+01 -5.861646E-02 -2.827081E-02  1.378293E+01
        19   1 -2.822091E-01 -6.970973E-01 -4.346337E+01  2.521294E-02 -6.942733E-02  1.363376E+01
        19   2 -1.586970E-01 -4.301751E-01 -4.332253E+01 -2.135668E-02 -4.288085E-02  1.169608E+01
        19   3 -2.932650E-01 -7.233453E-01 -1.614068E+02  9.986927E-02  3.932395E-01  5.783351E+00
        19   4 -1.352134E-01 -4.435492E-01 -1.612160E+02  5.329861E-02  5.260157E-01  4.886809E+00
        19   5  2.358817E-01  7.230491E-01 -3.644014E+01  5.861646E-02 -2.827081E-02  1.378293E+01
        19   6  1.022683E-01  3.953504E-01 -3.655976E+01  1.790889E-02 -2.301390E-02  1.196728E+01
        19   7  2.595561E-01  4.678455E-01 -1.367596E+02 -2.997091E-02  4.903155E-01  5.647640E+00
        19   8  1.493156E-01  2.875539E-01 -1.368496E+02 -2.170345E-01  5.436378E-01  4.602152E+00
        20   1 -1.586970E-01 -4.301751E-01 -4.332253E+01  2.135668E-02  4.288085E-02  1.169608E+01
        20   2 -2.822091E-01 -6.970973E-01 -4.346337E+01 -2.521294E-02  6.942733E-02  1.363376E+01
        20   3 -1.352134E-01 -4.435492E-01 -1.612160E+02 -5.329861E-02 -5.260157E-01  4.886809E+00
        20   4 -2.932650E-01 -7.233453E-01 -1.614068E+02 -9.986927E-02 -3.932395E-01  5.783351E+00
        20   5  1.022683E-01  3.953504E-01 -3.655976E+01 -1.790889E-02  2.301390E-02  1.196728E+01
        20   6  2.358817E-01  7.230491E-01 -3.644014E+01 -5.861646E-02  2.827081E-02  1.378293E+01
        20   7  1.493156E-01  2.875539E-01 -1.368496E+02  2.170345E-01 -5.436378E-01  4.602152E+00
        20   8  2.595561E-01  4.678455E-01 -1.367596E+02  2.997091E-02 -4.903155E-01  5.647640E+00