
                        S T E P       1


                                INCREMENT     1


 displacements (vx,vy,vz) for set NALL and time  0.1000000E+01

         1  0.000000E+00  0.000000E+00  0.000000E+00
         2 -4.700322E-02  0.000000E+00  0.000000E+00
         3 -4.700322E-02 -4.700322E-02  0.000000E+00
         4  7.203338E-17 -4.700322E-02  0.000000E+00
         5  6.901476E-09  6.901989E-09  8.549490E-01
         6 -4.700323E-02  6.901971E-09  8.549490E-01
         7 -4.700323E-02 -4.700323E-02  8.549490E-01
         8  6.901493E-09 -4.700323E-02  8.549490E-01
         9 -1.175080E-02  9.642425E-13  0.000000E+00
        10 -2.350161E-02  1.789892E-12  0.000000E+00
        11 -3.525241E-02  9.629622E-13  0.000000E+00
        12 -4.700322E-02 -1.175080E-02  0.000000E+00
        13 -4.700322E-02 -2.350161E-02  0.000000E+00
        14 -4.700322E-02 -3.525241E-02  0.000000E+00
        15 -3.525241E-02 -4.700322E-02  0.000000E+00
        16 -2.350161E-02 -4.700322E-02  0.000000E+00
        17 -1.175080E-02 -4.700322E-02  0.000000E+00
        18  9.627151E-13 -3.525241E-02  0.000000E+00
        19  1.788309E-12 -2.350161E-02  0.000000E+00
        20  9.618387E-13 -1.175080E-02  0.000000E+00
        21 -1.175080E-02  8.235280E-09  8.549490E-01
        22 -2.350161E-02  9.246580E-09  8.549490E-01
        23 -3.525242E-02  8.235270E-09  8.549490E-01
        24 -4.700323E-02 -1.175080E-02  8.549490E-01
        25 -4.700323E-02 -2.350161E-02  8.549490E-01
        26 -4.700323E-02 -3.525242E-02  8.549490E-01
        27 -3.525242E-02 -4.700323E-02  8.549490E-01
        28 -2.350161E-02 -4.700323E-02  8.549490E-01
        29 -1.175080E-02 -4.700323E-02  8.549490E-01
        30  8.234784E-09 -3.525242E-02  8.549490E-01
        31  9.246084E-09 -2.350161E-02  8.549490E-01
        32  8.234775E-09 -1.175080E-02  8.549490E-01
        33 -4.700322E-02  1.339347E-12  5.343431E-02
        34 -4.700322E-02 -3.833409E-14  1.068686E-01
        35 -4.700322E-02  8.650034E-13  1.603029E-01
        36 -4.700322E-02 -2.376457E-12  2.137372E-01
        37 -4.700322E-02  5.569716E-12  2.671716E-01
        38 -4.700322E-02 -3.463610E-12  3.206059E-01
        39 -4.700322E-02 -4.122235E-12  3.740402E-01
        40 -4.700322E-02 -2.025545E-11  4.274745E-01
        41 -4.700322E-02  4.970187E-11  4.809088E-01
        42 -4.700322E-02 -2.067075E-12  5.343431E-01
        43 -4.700322E-02 -1.064326E-10  5.877774E-01
        44 -4.700322E-02 -6.846953E-11  6.412117E-01
        45 -4.700322E-02  4.997074E-10  6.946460E-01
        46 -4.700322E-02  6.633560E-10  7.480803E-01
        47 -4.700322E-02 -2.214145E-09  8.015147E-01
        48 -2.214591E-09 -2.214126E-09  8.015147E-01
        49  6.629613E-10  6.633765E-10  7.480803E-01
        50  4.993606E-10  4.997279E-10  6.946460E-01
        51 -6.876910E-11 -6.844897E-11  6.412117E-01
        52 -1.066872E-10 -1.064133E-10  5.877774E-01
        53 -2.279779E-12 -2.050513E-12  5.343431E-01
        54  4.952845E-11  4.971633E-11  4.809088E-01
        55 -2.039332E-11 -2.024257E-11  4.274745E-01
        56 -4.227866E-12 -4.109522E-12  3.740402E-01
        57 -3.541152E-12 -3.450785E-12  3.206059E-01
        58  5.516349E-12  5.582781E-12  2.671716E-01
        59 -2.410353E-12 -2.364584E-12  2.137372E-01
        60  8.467837E-13  8.753250E-13  1.603029E-01
        61 -4.611737E-14 -3.118987E-14  1.068686E-01
        62  1.338558E-12  1.344193E-12  5.343431E-02
        63 -4.700322E-02 -4.700322E-02  5.343431E-02
        64 -4.700322E-02 -4.700322E-02  1.068686E-01
        65 -4.700322E-02 -4.700322E-02  1.603029E-01
        66 -4.700322E-02 -4.700322E-02  2.137372E-01
        67 -4.700322E-02 -4.700322E-02  2.671716E-01
        68 -4.700322E-02 -4.700322E-02  3.206059E-01
        69 -4.700322E-02 -4.700322E-02  3.740402E-01
        70 -4.700322E-02 -4.700322E-02  4.274745E-01
        71 -4.700322E-02 -4.700322E-02  4.809088E-01
        72 -4.700322E-02 -4.700322E-02  5.343431E-01
        73 -4.700322E-02 -4.700322E-02  5.877774E-01
        74 -4.700322E-02 -4.700322E-02  6.412117E-01
        75 -4.700322E-02 -4.700322E-02  6.946460E-01
        76 -4.700322E-02 -4.700322E-02  7.480803E-01
        77 -4.700322E-02 -4.700322E-02  8.015147E-01
        78  1.340073E-12 -4.700322E-02  5.343431E-02
        79 -4.184699E-14 -4.700322E-02  1.068686E-01
        80  8.534552E-13 -4.700322E-02  1.603029E-01
        81 -2.401525E-12 -4.700322E-02  2.137372E-01
        82  5.525963E-12 -4.700322E-02  2.671716E-01
        83 -3.531354E-12 -4.700322E-02  3.206059E-01
        84 -4.218183E-12 -4.700322E-02  3.740402E-01
        85 -2.038327E-11 -4.700322E-02  4.274745E-01
        86  4.954034E-11 -4.700322E-02  4.809088E-01
        87 -2.265489E-12 -4.700322E-02  5.343431E-01
        88 -1.066702E-10 -4.700322E-02  5.877774E-01
        89 -6.874994E-11 -4.700322E-02  6.412117E-01
        90  4.993802E-10 -4.700322E-02  6.946460E-01
        91  6.629800E-10 -4.700322E-02  7.480803E-01
        92 -2.214572E-09 -4.700322E-02  8.015147E-01
        93 -2.350161E-02 -1.175080E-02  0.000000E+00
        94 -1.175080E-02 -2.350161E-02  0.000000E+00
        95 -2.350161E-02 -2.350161E-02  0.000000E+00
        96 -3.525241E-02 -2.350161E-02  0.000000E+00
        97 -2.350161E-02 -3.525241E-02  0.000000E+00
        98 -2.350161E-02 -1.175080E-02  8.549490E-01
        99 -1.175080E-02 -2.350161E-02  8.549490E-01
       100 -2.350161E-02 -2.350161E-02  8.549489E-01
       101 -3.525241E-02 -2.350161E-02  8.549490E-01
       102 -2.350161E-02 -3.525241E-02  8.549490E-01
       103 -2.350161E-02  4.739548E-13  5.343431E-02
       104 -1.175080E-02  9.542230E-13  1.068686E-01
       105 -2.350161E-02  2.227683E-12  1.068686E-01
       106 -3.525241E-02  9.508209E-13  1.068686E-01
       107 -2.350161E-02 -3.558328E-13  1.603029E-01
       108 -1.175080E-02  2.392119E-12  2.137372E-01
       109 -2.350161E-02  6.229755E-12  2.137372E-01
       110 -3.525241E-02  2.386296E-12  2.137372E-01
       111 -2.350161E-02 -2.256398E-12  2.671716E-01
       112 -1.175080E-02  5.924573E-12  3.206059E-01
       113 -2.350161E-02  1.840759E-11  3.206059E-01
       114 -3.525241E-02  5.918244E-12  3.206059E-01
       115 -2.350161E-02 -1.442327E-11  3.740402E-01
       116 -1.175080E-02  3.125146E-11  4.274745E-01
       117 -2.350161E-02  7.346353E-11  4.274745E-01
       118 -3.525241E-02  3.124478E-11  4.274745E-01
       119 -2.350161E-02 -4.575861E-11  4.809088E-01
       120 -1.175080E-02  1.178719E-10  5.343431E-01
       121 -2.350161E-02  2.645704E-10  5.343431E-01
       122 -3.525241E-02  1.178636E-10  5.343431E-01
       123 -2.350161E-02 -2.188447E-10  5.877774E-01
       124 -1.175080E-02  5.683220E-10  6.412117E-01
       125 -2.350161E-02  1.142511E-09  6.412117E-01
       126 -3.525241E-02  5.683117E-10  6.412117E-01
       127 -2.350161E-02 -8.231586E-10  6.946460E-01
       128 -1.175080E-02  2.305083E-09  7.480804E-01
       129 -2.350161E-02  4.035737E-09  7.480803E-01
       130 -3.525241E-02  2.305073E-09  7.480804E-01
       131 -2.350161E-02 -4.311622E-09  8.015147E-01
       132 -4.700322E-02 -2.350161E-02  5.343431E-02
       133 -4.700322E-02 -1.175080E-02  1.068686E-01
       134 -4.700322E-02 -2.350161E-02  1.068686E-01
       135 -4.700322E-02 -3.525241E-02  1.068686E-01
       136 -4.700322E-02 -2.350161E-02  1.603029E-01
       137 -4.700322E-02 -1.175080E-02  2.137372E-01
       138 -4.700322E-02 -2.350161E-02  2.137372E-01
       139 -4.700322E-02 -3.525241E-02  2.137372E-01
       140 -4.700322E-02 -2.350161E-02  2.671716E-01
       141 -4.700322E-02 -1.175080E-02  3.206059E-01
       142 -4.700322E-02 -2.350161E-02  3.206059E-01
       143 -4.700322E-02 -3.525241E-02  3.206059E-01
       144 -4.700322E-02 -2.350161E-02  3.740402E-01
       145 -4.700322E-02 -1.175080E-02  4.274745E-01
       146 -4.700322E-02 -2.350161E-02  4.274745E-01
       147 -4.700322E-02 -3.525241E-02  4.274745E-01
       148 -4.700322E-02 -2.350161E-02  4.809088E-01
       149 -4.700322E-02 -1.175080E-02  5.343431E-01
       150 -4.700322E-02 -2.350161E-02  5.343431E-01
       151 -4.700322E-02 -3.525241E-02  5.343431E-01
       152 -4.700322E-02 -2.350161E-02  5.877774E-01
       153 -4.700322E-02 -1.175080E-02  6.412117E-01
       154 -4.700322E-02 -2.350161E-02  6.412117E-01
       155 -4.700322E-02 -3.525241E-02  6.412117E-01
       156 -4.700322E-02 -2.350161E-02  6.946460E-01
       157 -4.700322E-02 -1.175080E-02  7.480804E-01
       158 -4.700322E-02 -2.350161E-02  7.480803E-01
       159 -4.700322E-02 -3.525241E-02  7.480804E-01
       160 -4.700321E-02 -2.350161E-02  8.015147E-01
       161 -2.350161E-02 -4.700322E-02  5.343431E-02
       162 -3.525241E-02 -4.700322E-02  1.068686E-01
       163 -2.350161E-02 -4.700322E-02  1.068686E-01
       164 -1.175080E-02 -4.700322E-02  1.068686E-01
       165 -2.350161E-02 -4.700322E-02  1.603029E-01
       166 -3.525241E-02 -4.700322E-02  2.137372E-01
       167 -2.350161E-02 -4.700322E-02  2.137372E-01
       168 -1.175080E-02 -4.700322E-02  2.137372E-01
       169 -2.350161E-02 -4.700322E-02  2.671716E-01
       170 -3.525241E-02 -4.700322E-02  3.206059E-01
       171 -2.350161E-02 -4.700322E-02  3.206059E-01
       172 -1.175080E-02 -4.700322E-02  3.206059E-01
       173 -2.350161E-02 -4.700322E-02  3.740402E-01
       174 -3.525241E-02 -4.700322E-02  4.274745E-01
       175 -2.350161E-02 -4.700322E-02  4.274745E-01
       176 -1.175080E-02 -4.700322E-02  4.274745E-01
       177 -2.350161E-02 -4.700322E-02  4.809088E-01
       178 -3.525241E-02 -4.700322E-02  5.343431E-01
       179 -2.350161E-02 -4.700322E-02  5.343431E-01
       180 -1.175080E-02 -4.700322E-02  5.343431E-01
       181 -2.350161E-02 -4.700322E-02  5.877774E-01
       182 -3.525241E-02 -4.700322E-02  6.412117E-01
       183 -2.350161E-02 -4.700322E-02  6.412117E-01
       184 -1.175080E-02 -4.700322E-02  6.412117E-01
       185 -2.350161E-02 -4.700322E-02  6.946460E-01
       186 -3.525241E-02 -4.700322E-02  7.480804E-01
       187 -2.350161E-02 -4.700322E-02  7.480803E-01
       188 -1.175080E-02 -4.700322E-02  7.480804E-01
       189 -2.350161E-02 -4.700321E-02  8.015147E-01
       190  4.701844E-13 -2.350161E-02  5.343431E-02
       191  9.435390E-13 -3.525241E-02  1.068686E-01
       192  2.217310E-12 -2.350161E-02  1.068686E-01
       193  9.411929E-13 -1.175080E-02  1.068686E-01
       194 -3.771313E-13 -2.350161E-02  1.603029E-01
       195  2.355091E-12 -3.525241E-02  2.137372E-01
       196  6.193180E-12 -2.350161E-02  2.137372E-01
       197  2.350517E-12 -1.175080E-02  2.137372E-01
       198 -2.312640E-12 -2.350161E-02  2.671716E-01
       199  5.844023E-12 -3.525241E-02  3.206059E-01
       200  1.832747E-11 -2.350161E-02  3.206059E-01
       201  5.838920E-12 -1.175080E-02  3.206059E-01
       202 -1.453142E-11 -2.350161E-02  3.740402E-01
       203  3.111078E-11 -3.525241E-02  4.274745E-01
       204  7.332328E-11 -2.350161E-02  4.274745E-01
       205  3.110527E-11 -1.175080E-02  4.274745E-01
       206 -4.593432E-11 -2.350161E-02  4.809088E-01
       207  1.176569E-10 -3.525241E-02  5.343431E-01
       208  2.643557E-10 -2.350161E-02  5.343431E-01
       209  1.176495E-10 -1.175080E-02  5.343431E-01
       210 -2.191010E-10 -2.350161E-02  5.877774E-01
       211  5.680207E-10 -3.525241E-02  6.412117E-01
       212  1.142210E-09 -2.350161E-02  6.412117E-01
       213  5.680113E-10 -1.175080E-02  6.412117E-01
       214 -8.235062E-10 -2.350161E-02  6.946460E-01
       215  2.304687E-09 -3.525241E-02  7.480804E-01
       216  4.035341E-09 -2.350161E-02  7.480803E-01
       217  2.304677E-09 -1.175080E-02  7.480804E-01
       218 -4.312067E-09 -2.350161E-02  8.015147E-01
       219 -2.350161E-02 -2.350161E-02  5.343431E-02
       220 -2.350161E-02 -1.175080E-02  1.068686E-01
       221 -1.175080E-02 -2.350161E-02  1.068686E-01
       222 -2.350161E-02 -2.350161E-02  1.068686E-01
       223 -3.525241E-02 -2.350161E-02  1.068686E-01
       224 -2.350161E-02 -3.525241E-02  1.068686E-01
       225 -2.350161E-02 -2.350161E-02  1.603029E-01
       226 -2.350161E-02 -1.175080E-02  2.137372E-01
       227 -1.175080E-02 -2.350161E-02  2.137372E-01
       228 -2.350161E-02 -2.350161E-02  2.137372E-01
       229 -3.525241E-02 -2.350161E-02  2.137372E-01
       230 -2.350161E-02 -3.525241E-02  2.137372E-01
       231 -2.350161E-02 -2.350161E-02  2.671716E-01
       232 -2.350161E-02 -1.175080E-02  3.206059E-01
       233 -1.175080E-02 -2.350161E-02  3.206059E-01
       234 -2.350161E-02 -2.350161E-02  3.206059E-01
       235 -3.525241E-02 -2.350161E-02  3.206059E-01
       236 -2.350161E-02 -3.525241E-02  3.206059E-01
       237 -2.350161E-02 -2.350161E-02  3.740402E-01
       238 -2.350161E-02 -1.175080E-02  4.274745E-01
       239 -1.175080E-02 -2.350161E-02  4.274745E-01
       240 -2.350161E-02 -2.350161E-02  4.274745E-01
       241 -3.525241E-02 -2.350161E-02  4.274745E-01
       242 -2.350161E-02 -3.525241E-02  4.274745E-01
       243 -2.350161E-02 -2.350161E-02  4.809088E-01
       244 -2.350161E-02 -1.175080E-02  5.343431E-01
       245 -1.175080E-02 -2.350161E-02  5.343431E-01
       246 -2.350161E-02 -2.350161E-02  5.343431E-01
       247 -3.525241E-02 -2.350161E-02  5.343431E-01
       248 -2.350161E-02 -3.525241E-02  5.343431E-01
       249 -2.350161E-02 -2.350161E-02  5.877774E-01
       250 -2.350161E-02 -1.175080E-02  6.412117E-01
       251 -1.175080E-02 -2.350161E-02  6.412117E-01
       252 -2.350161E-02 -2.350161E-02  6.412117E-01
       253 -3.525241E-02 -2.350161E-02  6.412117E-01
       254 -2.350161E-02 -3.525241E-02  6.412117E-01
       255 -2.350161E-02 -2.350161E-02  6.946460E-01
       256 -2.350161E-02 -1.175080E-02  7.480804E-01
       257 -1.175080E-02 -2.350161E-02  7.480804E-01
       258 -2.350161E-02 -2.350161E-02  7.480804E-01
       259 -3.525242E-02 -2.350161E-02  7.480804E-01
       260 -2.350161E-02 -3.525242E-02  7.480804E-01
       261 -2.350161E-02 -2.350161E-02  8.015147E-01

 forces (fx,fy,fz) for set NALL and time  0.1000000E+01

         1  6.377986E-09  6.377985E-09  2.083332E-02
         2 -6.377985E-09  6.377986E-09  2.083332E-02
         3 -6.377986E-09 -6.377984E-09  2.083332E-02
         4  6.377985E-09 -6.377984E-09  2.083332E-02
         5  6.377515E-09  6.377515E-09 -2.083329E-02
         6 -6.377518E-09  6.377518E-09 -2.083329E-02
         7 -6.377520E-09 -6.377522E-09 -2.083329E-02
         8  6.377522E-09 -6.377522E-09 -2.083329E-02
         9 -1.883276E-16 -2.551194E-08 -8.333329E-02
        10  8.047671E-16  1.275597E-08  4.166664E-02
        11 -1.225698E-15 -2.551194E-08 -8.333329E-02
        12  2.551194E-08  3.933584E-16 -8.333329E-02
        13 -1.275597E-08  1.466734E-15  4.166664E-02
        14  2.551194E-08 -3.060428E-15 -8.333329E-02
        15  1.385435E-15  2.551194E-08 -8.333329E-02
        16 -1.003984E-15 -1.275597E-08  4.166664E-02
        17  3.687095E-16  2.551194E-08 -8.333329E-02
        18 -2.551194E-08 -2.390944E-15 -8.333329E-02
        19  1.275597E-08  1.528179E-15  4.166664E-02
        20 -2.551194E-08 -1.523147E-15 -8.333329E-02
        21  2.264474E-13 -2.551239E-08  8.333326E-02
        22 -2.537274E-15  1.275538E-08 -4.166658E-02
        23 -2.211449E-13 -2.551239E-08  8.333326E-02
        24  2.551240E-08  2.229564E-13  8.333326E-02
        25 -1.275538E-08 -3.351561E-15 -4.166658E-02
        26  2.551240E-08 -2.114531E-13  8.333326E-02
        27 -2.194796E-13  2.551240E-08  8.333326E-02
        28  2.061249E-15 -1.275539E-08 -4.166658E-02
        29  2.143981E-13  2.551240E-08  8.333326E-02
        30 -2.551240E-08 -2.120319E-13  8.333326E-02
        31  1.275538E-08 -4.877946E-15 -4.166658E-02
        32 -2.551240E-08  2.278851E-13  8.333326E-02
        33  2.551194E-08 -2.551194E-08  9.614705E-16
        34 -1.275597E-08  1.275597E-08 -9.155003E-16
        35  2.551194E-08 -2.551194E-08  2.231288E-15
        36 -1.275597E-08  1.275597E-08 -1.126052E-15
        37  2.551194E-08 -2.551194E-08  2.054997E-15
        38 -1.275597E-08  1.275597E-08  4.305584E-15
        39  2.551194E-08 -2.551194E-08 -6.522994E-15
        40 -1.275598E-08  1.275598E-08  1.928145E-14
        41  2.551195E-08 -2.551195E-08 -2.737827E-14
        42 -1.275597E-08  1.275597E-08  6.312355E-14
        43  2.551194E-08 -2.551194E-08 -9.227038E-14
        44 -1.275606E-08  1.275606E-08  1.889623E-13
        45  2.551211E-08 -2.551211E-08 -2.671845E-13
        46 -1.275570E-08  1.275570E-08  4.981547E-13
        47  2.551151E-08 -2.551151E-08 -8.476492E-13
        48 -2.551151E-08 -2.551151E-08 -8.507893E-13
        49  1.275570E-08  1.275570E-08  4.990512E-13
        50 -2.551211E-08 -2.551211E-08 -2.687063E-13
        51  1.275606E-08  1.275606E-08  1.891098E-13
        52 -2.551194E-08 -2.551194E-08 -9.344023E-14
        53  1.275597E-08  1.275597E-08  6.203577E-14
        54 -2.551195E-08 -2.551195E-08 -2.633744E-14
        55  1.275598E-08  1.275598E-08  1.846120E-14
        56 -2.551194E-08 -2.551194E-08 -5.902830E-15
        57  1.275597E-08  1.275597E-08  4.507733E-15
        58 -2.551194E-08 -2.551194E-08  1.940722E-17
        59  1.275597E-08  1.275597E-08  5.787471E-16
        60 -2.551194E-08 -2.551194E-08  6.559423E-16
        61  1.275597E-08  1.275597E-08  2.741947E-16
        62 -2.551194E-08 -2.551194E-08  1.843144E-17
        63  2.551194E-08  2.551194E-08 -6.349088E-16
        64 -1.275597E-08 -1.275597E-08  1.147520E-15
        65  2.551194E-08  2.551194E-08 -2.343611E-15
        66 -1.275597E-08 -1.275597E-08  3.234175E-15
        67  2.551194E-08  2.551194E-08 -6.026429E-15
        68 -1.275597E-08 -1.275597E-08  8.082510E-15
        69  2.551194E-08  2.551194E-08 -1.411805E-14
        70 -1.275598E-08 -1.275597E-08  2.190414E-14
        71  2.551195E-08  2.551195E-08 -3.445681E-14
        72 -1.275597E-08 -1.275597E-08  6.589239E-14
        73  2.551194E-08  2.551194E-08 -1.041606E-13
        74 -1.275606E-08 -1.275606E-08  1.950614E-13
        75  2.551211E-08  2.551211E-08 -2.812091E-13
        76 -1.275570E-08 -1.275570E-08  5.070889E-13
        77  2.551151E-08  2.551151E-08 -8.633519E-13
        78 -2.551194E-08  2.551194E-08 -3.497636E-16
        79  1.275597E-08 -1.275597E-08  5.425348E-16
        80 -2.551194E-08  2.551194E-08 -2.178813E-15
        81  1.275597E-08 -1.275597E-08  2.991314E-15
        82 -2.551194E-08  2.551194E-08 -7.376261E-15
        83  1.275597E-08 -1.275597E-08  9.038560E-15
        84 -2.551194E-08  2.551194E-08 -1.616329E-14
        85  1.275598E-08 -1.275598E-08  2.437655E-14
        86 -2.551196E-08  2.551196E-08 -3.755590E-14
        87  1.275597E-08 -1.275597E-08  6.593055E-14
        88 -2.551194E-08  2.551194E-08 -1.038347E-13
        89  1.275606E-08 -1.275606E-08  1.956525E-13
        90 -2.551211E-08  2.551211E-08 -2.820738E-13
        91  1.275570E-08 -1.275570E-08  5.047724E-13
        92 -2.551151E-08  2.551151E-08 -8.626077E-13
        93 -7.029009E-16 -4.644502E-15 -1.666666E-01
        94 -2.129832E-15 -2.005246E-16 -1.666666E-01
        95 -6.151739E-16  3.212437E-15  8.333329E-02
        96  4.214336E-15  2.116851E-16 -1.666666E-01
        97 -1.193118E-16 -2.184198E-15 -1.666666E-01
        98 -1.669632E-15  3.915239E-14  1.666665E-01
        99  2.644373E-14  7.837786E-15  1.666665E-01
       100  3.585990E-15 -1.062823E-14 -8.333326E-02
       101 -3.468189E-14  6.499658E-15  1.666665E-01
       102 -2.752569E-15 -1.466943E-14  1.666665E-01
       103 -1.860997E-16 -5.102388E-08  6.802827E-16
       104  4.475935E-16 -5.102389E-08  2.186782E-15
       105 -8.541192E-16  2.551194E-08 -1.057260E-15
       106  9.620936E-16 -5.102389E-08  2.366597E-15
       107  6.440602E-17 -5.102389E-08  4.092375E-15
       108  6.091552E-16 -5.102388E-08  5.433100E-15
       109 -9.178781E-16  2.551194E-08 -3.063142E-15
       110  6.897563E-16 -5.102389E-08  5.435431E-15
       111 -2.422632E-16 -5.102388E-08  6.510146E-15
       112  3.671966E-15 -5.102388E-08  5.731364E-15
       113 -1.513177E-15  2.551194E-08  2.171982E-15
       114  6.046242E-16 -5.102388E-08  7.153837E-15
       115  3.839495E-15 -5.102389E-08 -2.424276E-15
       116 -5.745589E-15 -5.102389E-08  8.559017E-15
       117 -2.348108E-15  2.551195E-08  1.541692E-14
       118  1.129418E-14 -5.102389E-08  6.042150E-15
       119 -1.991588E-15 -5.102389E-08 -1.898953E-14
       120  1.625872E-14 -5.102385E-08  6.011196E-15
       121 -2.314620E-15  2.551196E-08  8.709358E-14
       122 -1.243849E-14 -5.102386E-08  7.805171E-15
       123  1.215428E-15 -5.102391E-08 -1.373365E-13
       124 -5.314748E-14 -5.102398E-08 -3.536667E-14
       125  8.853125E-16  2.551205E-08  2.661584E-13
       126  5.209953E-14 -5.102399E-08 -3.788278E-14
       127 -2.248405E-15 -5.102415E-08 -3.816504E-13
       128  3.953894E-13 -5.102340E-08  8.678908E-14
       129  5.493188E-16  2.551159E-08  7.121186E-13
       130 -3.947452E-13 -5.102340E-08  8.711651E-14
       131 -9.785260E-16 -5.102279E-08 -9.904819E-13
       132  5.102388E-08  1.019273E-16 -6.789274E-16
       133  5.102389E-08 -9.100390E-16  4.109126E-16
       134 -2.551194E-08  1.378563E-15  5.770124E-16
       135  5.102388E-08 -2.952109E-15 -1.901691E-16
       136  5.102389E-08 -1.205512E-15 -1.660998E-16
       137  5.102388E-08 -3.578001E-15  1.023704E-15
       138 -2.551194E-08  4.313909E-15 -7.246807E-16
       139  5.102389E-08 -2.059355E-15  2.190088E-17
       140  5.102388E-08 -3.008969E-15  1.904293E-15
       141  5.102388E-08  6.670796E-16  1.122366E-15
       142 -2.551194E-08  3.118371E-15  5.196798E-15
       143  5.102388E-08 -6.971030E-15  5.440527E-16
       144  5.102389E-08 -3.024630E-15 -1.123689E-14
       145  5.102389E-08 -1.001721E-14 -2.916938E-15
       146 -2.551195E-08  5.294935E-15  2.132669E-14
       147  5.102389E-08 -1.873431E-15 -3.501756E-15
       148  5.102389E-08 -1.945036E-15 -2.966702E-14
       149  5.102386E-08  1.647734E-14 -2.087957E-15
       150 -2.551197E-08  4.479155E-15  9.371388E-14
       151  5.102386E-08 -2.592089E-14 -1.454782E-15
       152  5.102390E-08 -3.370376E-17 -1.499142E-13
       153  5.102398E-08 -5.618633E-14 -4.989520E-14
       154 -2.551205E-08  8.266732E-15  2.720565E-13
       155  5.102398E-08  3.809810E-14 -4.900008E-14
       156  5.102414E-08  2.598254E-15 -3.934923E-13
       157  5.102340E-08  3.944780E-13  7.448491E-14
       158 -2.551159E-08 -2.391479E-15  7.199664E-13
       159  5.102340E-08 -3.927495E-13  7.373854E-14
       160  5.102279E-08  9.924655E-16 -1.006950E-12
       161 -1.108319E-15  5.102388E-08 -4.716279E-16
       162 -5.325558E-16  5.102388E-08 -2.355104E-15
       163 -5.561568E-16 -2.551194E-08  2.328433E-15
       164  1.692673E-15  5.102388E-08 -2.492798E-15
       165 -2.534531E-16  5.102389E-08 -6.184072E-15
       166  6.048034E-15  5.102389E-08 -5.986314E-15
       167 -1.911604E-15 -2.551194E-08  3.634896E-15
       168 -1.849139E-15  5.102389E-08 -5.774678E-15
       169 -8.230570E-17  5.102389E-08 -5.934489E-15
       170 -1.743568E-15  5.102388E-08 -7.370623E-15
       171 -3.125859E-15 -2.551194E-08  9.990056E-15
       172  7.299621E-15  5.102388E-08 -6.095601E-15
       173 -2.744187E-15  5.102389E-08 -2.244038E-14
       174  2.248646E-15  5.102389E-08 -1.391487E-14
       175  9.627722E-16 -2.551194E-08  2.710809E-14
       176 -5.357472E-15  5.102389E-08 -1.547308E-14
       177  7.671860E-16  5.102389E-08 -4.134258E-14
       178 -1.577765E-14  5.102386E-08 -1.477659E-14
       179 -3.549544E-15 -2.551196E-08  9.661824E-14
       180  2.371411E-14  5.102386E-08 -1.468400E-14
       181 -1.435041E-16  5.102390E-08 -1.577529E-13
       182  4.912589E-14  5.102398E-08 -6.338484E-14
       183 -3.178005E-15 -2.551205E-08  2.758724E-13
       184 -4.694414E-14  5.102398E-08 -6.316367E-14
       185  1.697695E-16  5.102414E-08 -4.077739E-13
       186 -3.917582E-13  5.102340E-08  5.850203E-14
       187  1.633699E-15 -2.551159E-08  7.260895E-13
       188  3.875359E-13  5.102340E-08  5.872277E-14
       189  1.519631E-16  5.102279E-08 -1.020446E-12
       190 -5.102388E-08 -8.394761E-16 -5.681219E-17
       191 -5.102388E-08 -2.035420E-15 -2.813505E-17
       192  2.551194E-08  1.367003E-15  5.133697E-17
       193 -5.102388E-08 -1.917400E-15 -6.800658E-16
       194 -5.102389E-08 -1.164295E-16  1.198043E-16
       195 -5.102389E-08 -1.918122E-15 -9.915571E-16
       196  2.551195E-08  1.977860E-15  5.540273E-16
       197 -5.102388E-08 -2.824084E-16 -7.764514E-16
       198 -5.102388E-08 -2.633657E-15 -2.414410E-15
       199 -5.102388E-08 -4.276863E-15  5.908902E-16
       200  2.551194E-08 -3.044741E-15  8.631279E-15
       201 -5.102388E-08  8.282467E-15 -2.343720E-15
       202 -5.102389E-08  2.219947E-15 -1.539421E-14
       203 -5.102389E-08  6.827905E-15 -7.564045E-15
       204  2.551194E-08  6.777700E-16  2.178840E-14
       205 -5.102389E-08 -7.979267E-15 -3.634137E-15
       206 -5.102389E-08 -7.570796E-15 -3.073448E-14
       207 -5.102386E-08 -2.319353E-14 -2.922250E-15
       208  2.551197E-08  6.448375E-16  9.455121E-14
       209 -5.102385E-08  2.021366E-14 -5.394068E-15
       210 -5.102390E-08 -1.409206E-15 -1.509853E-13
       211 -5.102398E-08  4.917546E-14 -5.289687E-14
       212  2.551206E-08 -2.925833E-16  2.711083E-13
       213 -5.102398E-08 -4.786625E-14 -5.128396E-14
       214 -5.102415E-08 -1.417102E-15 -3.957480E-13
       215 -5.102340E-08 -3.879936E-13  7.190364E-14
       216  2.551159E-08 -3.238432E-15  7.190794E-13
       217 -5.102340E-08  3.950807E-13  7.084730E-14
       218 -5.102279E-08  1.386982E-15 -1.007827E-12
       219 -3.267833E-16  4.084806E-17  1.280334E-15
       220 -3.651265E-16 -3.555273E-15 -9.226018E-16
       221 -2.843635E-15  8.993476E-16 -7.272286E-16
       222  1.400000E-15  2.394879E-15  1.585104E-16
       223  1.687101E-15  9.225595E-16 -6.957867E-16
       224 -2.716648E-16  7.676509E-16 -8.198195E-16
       225  9.219552E-17  3.101671E-16 -1.451638E-15
       226 -3.793551E-16 -4.690848E-15  2.387630E-15
       227 -8.138226E-15 -1.738256E-15  8.103869E-16
       228  7.065489E-17  1.236761E-15 -2.065947E-15
       229  6.178168E-15 -3.118981E-15  1.140147E-15
       230 -1.734070E-15  1.175880E-15 -3.033598E-16
       231  7.744504E-16 -5.451765E-15  6.413815E-15
       232  3.889907E-15  9.422947E-15 -2.767263E-15
       233  3.781884E-15  9.914614E-16 -6.444498E-16
       234  4.811955E-16  8.846876E-16  8.223619E-15
       235 -4.460132E-15 -5.752981E-15 -1.071029E-15
       236 -2.556893E-15 -6.712268E-15  8.193316E-16
       237 -5.816574E-16  1.541251E-15 -2.278554E-14
       238  6.907419E-16 -1.403801E-14 -4.847468E-16
       239 -3.842117E-15 -2.816461E-15 -2.171765E-15
       240 -3.388388E-15  8.632985E-15  2.285157E-14
       241  1.339136E-14 -2.567420E-15 -1.659426E-15
       242  8.216443E-16  1.410479E-15 -2.659114E-15
       243  3.626025E-16 -3.262302E-15 -1.672322E-14
       244 -2.215589E-15  2.206834E-14 -1.492057E-14
       245  2.335111E-14 -6.572790E-15 -1.287653E-14
       246 -3.085948E-15  8.624153E-15  1.268483E-13
       247 -1.760202E-14 -1.152430E-15 -1.178913E-14
       248  3.142050E-15 -3.628884E-14 -1.250383E-14
       249  1.457838E-15  3.237796E-15 -2.366230E-13
       250 -1.041347E-15 -8.546708E-14 -5.908587E-14
       251 -9.587063E-14  6.993237E-16 -6.120695E-14
       252  9.632407E-15  2.402992E-15  3.653936E-13
       253  7.898414E-14  5.301776E-15 -5.947906E-14
       254  3.659106E-15  7.976969E-14 -5.946800E-14
       255  3.472471E-15  3.090016E-15 -4.280390E-13
       256 -2.921366E-15  6.517958E-13  2.972080E-13
       257  6.538012E-13 -1.017379E-15  2.957202E-13
       258  3.227741E-15  6.070470E-15  7.751649E-13
       259 -6.599555E-13  5.061574E-15  2.925180E-13
       260  2.561943E-15 -6.628319E-13  2.935635E-13
       261 -1.806206E-15 -2.194622E-15 -1.080380E-12

 stresses (elem, integ.pnt.,sxx,syy,szz,sxy,sxz,syz) for set EALL and time  0.1000000E+01

         1   1  1.451440E-07  1.451440E-07  1.101075E+00 -7.153482E-12  2.392796E-11  2.394270E-11
         1   2  1.450792E-07  1.450811E-07  1.101075E+00 -7.761450E-12  8.971061E-12 -1.657829E-11
         1   3  1.450812E-07  1.450792E-07  1.101075E+00 -7.753118E-12 -1.658123E-11  8.981675E-12
         1   4  1.451393E-07  1.451393E-07  1.101075E+00 -7.551347E-12 -1.621160E-11 -1.620844E-11
         1   5  1.449840E-07  1.449840E-07  1.101075E+00  1.466033E-11  2.086505E-11  2.087945E-11
         1   6  1.452286E-07  1.452251E-07  1.101075E+00  1.699040E-11 -1.728383E-11  1.192942E-11
         1   7  1.452251E-07  1.452286E-07  1.101075E+00  1.699544E-11  1.192303E-11 -1.726013E-11
         1   8  1.450009E-07  1.450009E-07  1.101075E+00  1.589639E-11 -7.906193E-12 -7.895655E-12
         2   1  1.450792E-07  1.450811E-07  1.101075E+00  7.757705E-12 -8.977422E-12 -1.658134E-11
         2   2  1.451440E-07  1.451440E-07  1.101075E+00  7.160297E-12 -2.393423E-11  2.392252E-11
         2   3  1.451393E-07  1.451393E-07  1.101075E+00  7.551968E-12  1.621143E-11 -1.621050E-11
         2   4  1.450811E-07  1.450792E-07  1.101075E+00  7.760411E-12  1.658160E-11  8.970912E-12
         2   5  1.452286E-07  1.452251E-07  1.101075E+00 -1.699360E-11  1.726648E-11  1.193126E-11
         2   6  1.449840E-07  1.449840E-07  1.101075E+00 -1.466160E-11 -2.087725E-11  2.087601E-11
         2   7  1.450009E-07  1.450009E-07  1.101075E+00 -1.589715E-11  7.902639E-12 -7.898659E-12
         2   8  1.452251E-07  1.452286E-07  1.101075E+00 -1.699473E-11 -1.192461E-11 -1.727628E-11
         3   1  1.450811E-07  1.450792E-07  1.101075E+00  7.762307E-12 -1.658115E-11 -8.969337E-12
         3   2  1.451393E-07  1.451393E-07  1.101075E+00  7.556911E-12 -1.621070E-11  1.621411E-11
         3   3  1.451440E-07  1.451440E-07  1.101075E+00  7.157933E-12  2.393205E-11 -2.392787E-11
         3   4  1.450792E-07  1.450811E-07  1.101075E+00  7.758448E-12  8.976911E-12  1.658305E-11