    1C
    1UModel: beam     Date: 10-Mar-1998                                 
    1UUSER                                                              
    1UDATE              14.march.2024                                   
    1UTIME              09:50:05                                        
    1UHOST                                                              
    1UPGM               CalculiX                                        
    1UVERSION           Version DEVELOPMENT                             
    1UCOMPILETIME       Thu 14 Mar 2024 09:49:15 AM CET                    
    1UDIR                                                               
    1UDBN                                                               
    1UMAT    1EL                                                        
    2C                            81                                     1
 -1         1 0.00000E+00 0.00000E+00 0.00000E+00
 -1         2 1.00000E+00 0.00000E+00 0.00000E+00
 -1         3 1.00000E+00 1.50000E+00 0.00000E+00
 -1         4 0.00000E+00 1.50000E+00 0.00000E+00
 -1         5 0.00000E+00 0.00000E+00 8.00000E+00
 -1         6 1.00000E+00 0.00000E+00 8.00000E+00
 -1         7 1.00000E+00 1.50000E+00 8.00000E+00
 -1         8 0.00000E+00 1.50000E+00 8.00000E+00
 -1        10 5.00000E-01 0.00000E+00 0.00000E+00
 -1        13 1.00000E+00 7.50000E-01 0.00000E+00
 -1        16 5.00000E-01 1.50000E+00 0.00000E+00
 -1        19 0.00000E+00 7.50000E-01 0.00000E+00
 -1        22 5.00000E-01 0.00000E+00 8.00000E+00
 -1        25 1.00000E+00 7.50000E-01 8.00000E+00
 -1        28 5.00000E-01 1.50000E+00 8.00000E+00
 -1        31 0.00000E+00 7.50000E-01 8.00000E+00
 -1        34 1.00000E+00 0.00000E+00 1.00000E+00
 -1        36 1.00000E+00 0.00000E+00 2.00000E+00
 -1        38 1.00000E+00 0.00000E+00 3.00000E+00
 -1        40 1.00000E+00 0.00000E+00 4.00000E+00
 -1        42 1.00000E+00 0.00000E+00 5.00000E+00
 -1        44 1.00000E+00 0.00000E+00 6.00000E+00
 -1        46 1.00000E+00 0.00000E+00 7.00000E+00
 -1        49 0.00000E+00 0.00000E+00 7.00000E+00
 -1        51 0.00000E+00 0.00000E+00 6.00000E+00
 -1        53 0.00000E+00 0.00000E+00 5.00000E+00
 -1        55 0.00000E+00 0.00000E+00 4.00000E+00
 -1        57 0.00000E+00 0.00000E+00 3.00000E+00
 -1        59 0.00000E+00 0.00000E+00 2.00000E+00
 -1        61 0.00000E+00 0.00000E+00 1.00000E+00
 -1        64 1.00000E+00 1.50000E+00 1.00000E+00
 -1        66 1.00000E+00 1.50000E+00 2.00000E+00
 -1        68 1.00000E+00 1.50000E+00 3.00000E+00
 -1        70 1.00000E+00 1.50000E+00 4.00000E+00
 -1        72 1.00000E+00 1.50000E+00 5.00000E+00
 -1        74 1.00000E+00 1.50000E+00 6.00000E+00
 -1        76 1.00000E+00 1.50000E+00 7.00000E+00
 -1        79 0.00000E+00 1.50000E+00 1.00000E+00
 -1        81 0.00000E+00 1.50000E+00 2.00000E+00
 -1        83 0.00000E+00 1.50000E+00 3.00000E+00
 -1        85 0.00000E+00 1.50000E+00 4.00000E+00
 -1        87 0.00000E+00 1.50000E+00 5.00000E+00
 -1        89 0.00000E+00 1.50000E+00 6.00000E+00
 -1        91 0.00000E+00 1.50000E+00 7.00000E+00
 -1        95 5.00000E-01 7.50000E-01 0.00000E+00
 -1       100 5.00000E-01 7.50000E-01 8.00000E+00
 -1       105 5.00000E-01 0.00000E+00 1.00000E+00
 -1       109 5.00000E-01 0.00000E+00 2.00000E+00
 -1       113 5.00000E-01 0.00000E+00 3.00000E+00
 -1       117 5.00000E-01 0.00000E+00 4.00000E+00
 -1       121 5.00000E-01 0.00000E+00 5.00000E+00
 -1       125 5.00000E-01 0.00000E+00 6.00000E+00
 -1       129 5.00000E-01 0.00000E+00 7.00000E+00
 -1       134 1.00000E+00 7.50000E-01 1.00000E+00
 -1       138 1.00000E+00 7.50000E-01 2.00000E+00
 -1       142 1.00000E+00 7.50000E-01 3.00000E+00
 -1       146 1.00000E+00 7.50000E-01 4.00000E+00
 -1       150 1.00000E+00 7.50000E-01 5.00000E+00
 -1       154 1.00000E+00 7.50000E-01 6.00000E+00
 -1       158 1.00000E+00 7.50000E-01 7.00000E+00
 -1       163 5.00000E-01 1.50000E+00 1.00000E+00
 -1       167 5.00000E-01 1.50000E+00 2.00000E+00
 -1       171 5.00000E-01 1.50000E+00 3.00000E+00
 -1       175 5.00000E-01 1.50000E+00 4.00000E+00
 -1       179 5.00000E-01 1.50000E+00 5.00000E+00
 -1       183 5.00000E-01 1.50000E+00 6.00000E+00
 -1       187 5.00000E-01 1.50000E+00 7.00000E+00
 -1       192 0.00000E+00 7.50000E-01 1.00000E+00
 -1       196 0.00000E+00 7.50000E-01 2.00000E+00
 -1       200 0.00000E+00 7.50000E-01 3.00000E+00
 -1       204 0.00000E+00 7.50000E-01 4.00000E+00
 -1       208 0.00000E+00 7.50000E-01 5.00000E+00
 -1       212 0.00000E+00 7.50000E-01 6.00000E+00
 -1       216 0.00000E+00 7.50000E-01 7.00000E+00
 -1       222 5.00000E-01 7.50000E-01 1.00000E+00
 -1       228 5.00000E-01 7.50000E-01 2.00000E+00
 -1       234 5.00000E-01 7.50000E-01 3.00000E+00
 -1       240 5.00000E-01 7.50000E-01 4.00000E+00
 -1       246 5.00000E-01 7.50000E-01 5.00000E+00
 -1       252 5.00000E-01 7.50000E-01 6.00000E+00
 -1       258 5.00000E-01 7.50000E-01 7.00000E+00
 -3
    3C                            32                                     1
 -1         1    1    0    1
 -2         1        10        95        19        61       105       222       192
 -1         2    1    0    1
 -2        10         2        13        95       105        34       134       222
 -1         3    1    0    1
 -2        19        95        16         4       192       222       163        79
 -1         4    1    0    1
 -2        95        13         3        16       222       134        64       163
 -1         5    1    0    1
 -2        61       105       222       192        59       109       228       196
 -1         6    1    0    1
 -2       105        34       134       222       109        36       138       228
 -1         7    1    0    1
 -2       192       222       163        79       196       228       167        81
 -1         8    1    0    1
 -2       222       134        64       163       228       138        66       167
 -1         9    1    0    1
 -2        59       109       228       196        57       113       234       200
 -1        10    1    0    1
 -2       109        36       138       228       113        38       142       234
 -1        11    1    0    1
 -2       196       228       167        81       200       234       171        83
 -1        12    1    0    1
 -2       228       138        66       167       234       142        68       171
 -1        13    1    0    1
 -2        57       113       234       200        55       117       240       204
 -1        14    1    0    1
 -2       113        38       142       234       117        40       146       240
 -1        15    1    0    1
 -2       200       234       171        83       204       240       175        85
 -1        16    1    0    1
 -2       234       142        68       171       240       146        70       175
 -1        17    1    0    1
 -2        55       117       240       204        53       121       246       208
 -1        18    1    0    1
 -2       117        40       146       240       121        42       150       246
 -1        19    1    0    1
 -2       204       240       175        85       208       246       179        87
 -1        20    1    0    1
 -2       240       146        70       175       246       150        72       179
 -1        21    1    0    1
 -2        53       121       246       208        51       125       252       212
 -1        22    1    0    1
 -2       121        42       150       246       125        44       154       252
 -1        23    1    0    1
 -2       208       246       179        87       212       252       183        89
 -1        24    1    0    1
 -2       246       150        72       179       252       154        74       183
 -1        25    1    0    1
 -2        51       125       252       212        49       129       258       216
 -1        26    1    0    1
 -2       125        44       154       252       129        46       158       258
 -1        27    1    0    1
 -2       212       252       183        89       216       258       187        91
 -1        28    1    0    1
 -2       252       154        74       183       258       158        76       187
 -1        29    1    0    1
 -2        49       129       258       216         5        22       100        31
 -1        30    1    0    1
 -2       129        46       158       258        22         6        25       100
 -1        31    1    0    1
 -2       216       258       187        91        31       100        28         8
 -1        32    1    0    1
 -2       258       158        76       187       100        25         7        28
 -3
    1PSTEP                         1           1           1          
  100CL  101 1.000000000          81                     0    1           1
 -4  DISP        4    1
 -5  D1          1    2    1    0
 -5  D2          1    2    2    0
 -5  D3          1    2    3    0
 -5  ALL         1    2    0    0    1ALL
 -1         1 0.00000E+00 0.00000E+00 0.00000E+00
 -1         2 0.00000E+00 0.00000E+00 0.00000E+00
 -1         3 0.00000E+00 0.00000E+00 0.00000E+00
 -1         4 0.00000E+00 0.00000E+00 0.00000E+00
 -1         5 2.33670E-06 2.39296E-03 3.31623E-04
 -1         6-2.33670E-06 2.39296E-03 3.31623E-04
 -1         7 2.33670E-06 2.39296E-03-3.31623E-04
 -1         8-2.33670E-06 2.39296E-03-3.31623E-04
 -1        10 0.00000E+00 0.00000E+00 0.00000E+00
 -1        13 0.00000E+00 0.00000E+00 0.00000E+00
 -1        16 0.00000E+00 0.00000E+00 0.00000E+00
 -1        19 0.00000E+00 0.00000E+00 0.00000E+00
 -1        22 3.47986E-16 2.39281E-03 3.31130E-04
 -1        25 3.38344E-16 2.39121E-03-2.63830E-17
 -1        28 3.28726E-16 2.39281E-03-3.31130E-04
 -1        31 3.38584E-16 2.39121E-03 3.13923E-17
 -1        34-1.41615E-05 5.88438E-05 7.25896E-05
 -1        36-1.00523E-05 2.08368E-04 1.41292E-04
 -1        38-8.57961E-06 4.44088E-04 1.99383E-04
 -1        40-6.86988E-06 7.49644E-04 2.46812E-04
 -1        42-5.12592E-06 1.11155E-03 2.83706E-04
 -1        44-3.51124E-06 1.51559E-03 3.10110E-04
 -1        46-1.29471E-06 1.94792E-03 3.25781E-04
 -1        49 1.29471E-06 1.94792E-03 3.25781E-04
 -1        51 3.51124E-06 1.51559E-03 3.10110E-04
 -1        53 5.12592E-06 1.11155E-03 2.83706E-04
 -1        55 6.86988E-06 7.49644E-04 2.46812E-04
 -1        57 8.57961E-06 4.44088E-04 1.99383E-04
 -1        59 1.00523E-05 2.08368E-04 1.41292E-04
 -1        61 1.41615E-05 5.88438E-05 7.25896E-05
 -1        64 1.41615E-05 5.88438E-05-7.25896E-05
 -1        66 1.00523E-05 2.08368E-04-1.41292E-04
 -1        68 8.57961E-06 4.44088E-04-1.99383E-04
 -1        70 6.86988E-06 7.49644E-04-2.46812E-04
 -1        72 5.12592E-06 1.11155E-03-2.83706E-04
 -1        74 3.51124E-06 1.51559E-03-3.10110E-04
 -1        76 1.29471E-06 1.94792E-03-3.25781E-04
 -1        79-1.41615E-05 5.88438E-05-7.25896E-05
 -1        81-1.00523E-05 2.08368E-04-1.41292E-04
 -1        83-8.57961E-06 4.44088E-04-1.99383E-04
 -1        85-6.86988E-06 7.49644E-04-2.46812E-04
 -1        87-5.12592E-06 1.11155E-03-2.83706E-04
 -1        89-3.51124E-06 1.51559E-03-3.10110E-04
 -1        91-1.29471E-06 1.94792E-03-3.25781E-04
 -1        95 0.00000E+00 0.00000E+00 0.00000E+00
 -1       100 3.38618E-16 2.39922E-03 2.60989E-18
 -1       105 9.31513E-18 6.33773E-05 7.12189E-05
 -1       109 3.51273E-17 2.11817E-04 1.42147E-04
 -1       113 7.33923E-17 4.46915E-04 1.99632E-04
 -1       117 1.21230E-16 7.51936E-04 2.47160E-04
 -1       121 1.75307E-16 1.11328E-03 2.84071E-04
 -1       125 2.32603E-16 1.51665E-03 3.10376E-04
 -1       129 2.90565E-16 1.94870E-03 3.26370E-04
 -1       134 9.83140E-18 4.90193E-05-7.48534E-18
 -1       138 3.33303E-17 2.01965E-04-1.42348E-17
 -1       142 6.94675E-17 4.38250E-04-1.93106E-17
 -1       146 1.15104E-16 7.45095E-04-2.28667E-17
 -1       150 1.67070E-16 1.10814E-03-2.51594E-17
 -1       154 2.22720E-16 1.51317E-03-2.61937E-17
 -1       158 2.80504E-16 1.94726E-03-2.65530E-17
 -1       163 6.42539E-18 6.33773E-05-7.12189E-05
 -1       167 2.88039E-17 2.11817E-04-1.42147E-04
 -1       171 6.34510E-17 4.46915E-04-1.99632E-04
 -1       175 1.07338E-16 7.51936E-04-2.47160E-04
 -1       179 1.57741E-16 1.11328E-03-2.84071E-04
 -1       183 2.12233E-16 1.51665E-03-3.10376E-04
 -1       187 2.70074E-16 1.94870E-03-3.26370E-04
 -1       192 9.96993E-18 4.90193E-05 8.18874E-18
 -1       196 3.33977E-17 2.01965E-04 1.57630E-17
 -1       200 6.95862E-17 4.38250E-04 2.15298E-17
 -1       204 1.15155E-16 7.45095E-04 2.59683E-17
 -1       208 1.67031E-16 1.10814E-03 2.87459E-17
 -1       212 2.22745E-16 1.51317E-03 3.06649E-17
 -1       216 2.80531E-16 1.94726E-03 3.14194E-17
 -1       222 9.12333E-18 5.35203E-05 3.40797E-19
 -1       228 3.29263E-17 2.05290E-04 7.37571E-19
 -1       234 6.91476E-17 4.41142E-04 1.19332E-18
 -1       240 1.14892E-16 7.47387E-04 1.49009E-18
 -1       246 1.66928E-16 1.10978E-03 1.83133E-18
 -1       252 2.22650E-16 1.51470E-03 2.19899E-18
 -1       258 2.80466E-16 1.94609E-03 2.45123E-18
 -3
    1PSTEP                         2           1           1          
  100CL  101 1.000000000          81                     0    1           1
 -4  STRESS      6    1
 -5  SXX         1    4    1    1
 -5  SYY         1    4    2    2
 -5  SZZ         1    4    3    3
 -5  SXY         1    4    1    2
 -5  SYZ         1    4    2    3
 -5  SZX         1    4    3    1
 -1         1 8.79439E+00 8.79440E+00 2.05201E+01-2.14093E-06 4.75272E+00 1.14380E+00
 -1         2 8.79439E+00 8.79440E+00 2.05201E+01 2.14093E-06 4.75272E+00-1.14380E+00
 -1         3-8.79439E+00-8.79440E+00-2.05201E+01 2.14093E-06 4.75272E+00 1.14380E+00
 -1         4-8.79439E+00-8.79440E+00-2.05201E+01-2.14093E-06 4.75272E+00-1.14380E+00
 -1         5-8.95904E-01-5.17674E-01 8.02643E-01-2.74472E-01 2.31992E-01 4.61575E-03
 -1         6-8.95904E-01-5.17674E-01 8.02643E-01 2.74472E-01 2.31992E-01-4.61575E-03
 -1         7 8.95904E-01 5.17674E-01-8.02643E-01 2.74472E-01 2.31992E-01 4.61575E-03
 -1         8 8.95904E-01 5.17674E-01-8.02643E-01-2.74472E-01 2.31992E-01-4.61575E-03
 -1        10 8.62833E+00 8.62833E+00 2.01326E+01-4.18068E-16 5.11888E+00 7.52386E-13
 -1        13-9.07177E-13-9.06691E-13-2.11531E-12 2.15957E-06 3.95920E+00 7.94156E-13
 -1        16-8.62833E+00-8.62833E+00-2.01326E+01-1.66533E-16 5.11888E+00 5.18693E-13
 -1        19 9.92180E-13 9.92040E-13 2.31604E-12-2.15957E-06 3.95920E+00 8.05351E-13
 -1        22 2.89687E-01 2.42348E+00 1.81346E+00-1.90542E-14 2.10997E-01-3.06838E-14
 -1        25-1.64951E-13-1.30562E-13-3.54716E-14-1.04220E+00 1.43776E-01-1.25577E-14
 -1        28-2.89687E-01-2.42348E+00-1.81346E+00-2.75561E-14 2.10997E-01-6.36990E-15
 -1        31 6.85008E-14 1.29341E-13 5.20139E-14 1.04220E+00 1.43776E-01 3.97093E-14
 -1        34-1.03468E+00 1.42451E+00 1.49523E+01 7.92748E-01 5.97511E-01-1.84534E-01
 -1        36 9.62933E-01 2.83135E+00 1.44513E+01 5.25480E-01 3.41804E-01 8.73798E-02
 -1        38 5.98275E-01 2.11279E+00 1.18926E+01 4.67264E-01 3.87176E-01 8.82465E-02
 -1        40 4.89002E-01 1.72864E+00 9.51898E+00 3.69556E-01 3.75223E-01 8.32372E-02
 -1        42 3.86109E-01 1.30862E+00 7.15453E+00 2.71618E-01 3.79354E-01 7.66668E-02
 -1        44 1.73801E-01 7.88473E-01 4.70649E+00 2.06092E-01 3.80169E-01 1.11775E-01
 -1        46 4.65070E-01 7.41912E-01 2.62086E+00 1.42066E-02 3.48113E-01-4.77939E-02
 -1        49 4.65070E-01 7.41912E-01 2.62086E+00-1.42066E-02 3.48113E-01 4.77939E-02
 -1        51 1.73801E-01 7.88473E-01 4.70649E+00-2.06092E-01 3.80169E-01-1.11775E-01
 -1        53 3.86109E-01 1.30862E+00 7.15453E+00-2.71618E-01 3.79354E-01-7.66668E-02
 -1        55 4.89002E-01 1.72864E+00 9.51898E+00-3.69556E-01 3.75223E-01-8.32372E-02
 -1        57 5.98275E-01 2.11279E+00 1.18926E+01-4.67264E-01 3.87176E-01-8.82465E-02
 -1        59 9.62933E-01 2.83135E+00 1.44513E+01-5.25480E-01 3.41804E-01-8.73798E-02
 -1        61-1.03468E+00 1.42451E+00 1.49523E+01-7.92748E-01 5.97511E-01 1.84534E-01
 -1        64 1.03468E+00-1.42451E+00-1.49523E+01 7.92748E-01 5.97511E-01 1.84534E-01
 -1        66-9.62933E-01-2.83135E+00-1.44513E+01 5.25480E-01 3.41804E-01-8.73798E-02
 -1        68-5.98275E-01-2.11279E+00-1.18926E+01 4.67264E-01 3.87176E-01-8.82465E-02
 -1        70-4.89002E-01-1.72864E+00-9.51898E+00 3.69556E-01 3.75223E-01-8.32372E-02
 -1        72-3.86109E-01-1.30862E+00-7.15453E+00 2.71618E-01 3.79354E-01-7.66668E-02
 -1        74-1.73801E-01-7.88473E-01-4.70649E+00 2.06092E-01 3.80169E-01-1.11775E-01
 -1        76-4.65070E-01-7.41912E-01-2.62086E+00 1.42066E-02 3.48113E-01 4.77939E-02
 -1        79 1.03468E+00-1.42451E+00-1.49523E+01-7.92748E-01 5.97511E-01-1.84534E-01
 -1        81-9.62933E-01-2.83135E+00-1.44513E+01-5.25480E-01 3.41804E-01 8.73798E-02
 -1        83-5.98275E-01-2.11279E+00-1.18926E+01-4.67264E-01 3.87176E-01 8.82465E-02
 -1        85-4.89002E-01-1.72864E+00-9.51898E+00-3.69556E-01 3.75223E-01 8.32372E-02
 -1        87-3.86109E-01-1.30862E+00-7.15453E+00-2.71618E-01 3.79354E-01 7.66668E-02
 -1        89-1.73801E-01-7.88473E-01-4.70649E+00-2.06092E-01 3.80169E-01 1.11775E-01
 -1        91-4.65070E-01-7.41912E-01-2.62086E+00-1.42066E-02 3.48113E-01-4.77939E-02
 -1        95 4.09187E-14 4.07903E-14 9.60482E-14 2.35922E-16 4.32274E+00 7.37005E-13
 -1       100 4.44089E-14 2.07945E-13 1.08191E-13-2.94764E-14 9.38117E-01 3.01861E-14
 -1       105-9.88170E-01 1.46401E+00 1.50678E+01-1.56153E-13 8.84388E-01 9.25648E-14
 -1       109 1.04111E+00 2.88292E+00 1.46603E+01-9.95870E-14 1.80869E-01 1.23276E-13
 -1       113 5.78091E-01 2.10659E+00 1.18316E+01-8.59729E-14 3.13630E-01 1.23160E-13
 -1       117 4.96007E-01 1.73563E+00 9.53533E+00-4.51028E-14 2.93660E-01 1.37531E-13
 -1       121 3.64891E-01 1.26576E+00 7.12667E+00-4.59771E-14 2.90483E-01 9.93424E-14
 -1       125 2.61448E-01 9.74853E-01 4.81227E+00 1.13173E-14 3.12745E-01 4.61887E-14
 -1       129 1.05131E-01-3.67003E-02 2.19968E+00 5.51781E-14 2.35913E-01-5.24580E-15
 -1       134-1.82132E-13-3.90799E-14-1.55886E-12 7.98002E-01 3.38908E-01 8.15381E-14
 -1       138-3.00759E-13-1.86740E-13-1.38262E-12 5.45437E-01 5.02809E-01-1.07121E-14
 -1       142-1.93623E-13-1.04250E-13-9.88543E-13 4.56772E-01 4.62058E-01-7.64232E-15
 -1       146-9.65061E-14 1.19904E-14-6.30551E-13 3.69563E-01 4.73436E-01 5.43511E-15
 -1       150-8.34610E-14-8.53762E-14-3.91409E-13 2.87851E-01 4.65627E-01-1.55726E-14
 -1       154 1.35725E-14 5.99243E-14-1.12965E-13 1.32042E-01 4.91187E-01-3.96905E-15
 -1       158-5.77594E-14-1.66769E-13-7.89369E-14 3.28212E-01 3.74932E-01-1.68111E-14
 -1       163 9.88170E-01-1.46401E+00-1.50678E+01 1.63619E-13 8.84388E-01-6.68840E-14
 -1       167-1.04111E+00-2.88292E+00-1.46603E+01 9.87543E-14 1.80869E-01-5.06747E-14
 -1       171-5.78091E-01-2.10659E+00-1.18316E+01 7.57866E-14 3.13630E-01-6.45733E-14
 -1       175-4.96007E-01-1.73563E+00-9.53533E+00 9.95315E-14 2.93660E-01-7.08236E-14
 -1       179-3.64891E-01-1.26576E+00-7.12667E+00 2.35367E-14 2.90483E-01-5.59882E-14
 -1       183-2.61448E-01-9.74853E-01-4.81227E+00 7.10890E-14 3.12745E-01-4.00045E-14
 -1       187-1.05131E-01 3.67003E-02-2.19968E+00 1.57513E-14 2.35913E-01 1.03390E-14
 -1       192 1.64202E-13 2.23155E-14 1.70869E-12-7.98002E-01 3.38908E-01 8.05220E-14
 -1       196 3.16414E-13 1.70419E-13 1.54482E-12-5.45437E-01 5.02809E-01-1.84342E-14
 -1       200 1.96454E-13 1.07914E-13 1.16185E-12-4.56772E-01 4.62058E-01 1.45453E-14
 -1       204 1.37973E-13 2.53131E-14 8.03857E-13-3.69563E-01 4.73436E-01-1.70855E-14
 -1       208 1.52461E-13 8.94285E-14 5.62467E-13-2.87851E-01 4.65627E-01-3.48742E-15
 -1       212 1.50019E-14-7.59115E-14 2.58363E-13-1.32042E-01 4.91187E-01-1.40480E-14
 -1       216-4.21885E-15 3.53190E-15 7.32435E-14-3.28212E-01 3.74932E-01-5.69179E-16
 -1       222-9.21485E-15-6.49480E-15 7.39131E-14 7.85483E-15 6.20796E-01 6.34414E-14
 -1       228 7.43849E-15-1.52656E-14 8.69582E-14-2.56739E-15 3.45810E-01 1.55418E-15
 -1       234-3.74700E-15-5.71765E-15 7.72576E-14-7.38992E-15 3.93499E-01 1.15392E-14
 -1       240-9.20097E-15-4.72677E-14 5.23748E-14 1.13173E-14 3.85191E-01 4.55262E-15
 -1       246 3.47916E-14 3.19189E-15 8.50431E-14 6.67522E-15 3.95270E-01-3.17926E-15
 -1       252-7.49401E-16-3.81362E-14 5.28813E-14 2.77590E-14 3.49320E-01-6.11024E-15
 -1       258 2.33841E-15-1.41970E-14 4.06480E-14-5.63889E-14 5.73386E-01 8.57712E-16
 -3
    1PSTEP                         3           1           1          
  100CL  101 1.000000000          81                     0    1           1
 -4  ERROR       1    1
 -5  STR(%)      1    1    0    0
 -1         1 6.08651E+01
 -1         2 6.08651E+01
 -1         3 6.08651E+01
 -1         4 6.08651E+01
 -1         5 4.70004E+01
 -1         6 4.70004E+01
 -1         7 4.70004E+01
 -1         8 4.70004E+01
 -1        10 6.08651E+01
 -1        13 6.08651E+01
 -1        16 6.08651E+01
 -1        19 6.08651E+01
 -1        22 4.70004E+01
 -1        25 4.70004E+01
 -1        28 4.70004E+01
 -1        31 4.70004E+01
 -1        34 6.08651E+01
 -1        36 5.79534E+01
 -1        38 5.84113E+01
 -1        40 5.91987E+01
 -1        42 6.00778E+01
 -1        44 6.23107E+01
 -1        46 6.23107E+01
 -1        49 6.23107E+01
 -1        51 6.23107E+01
 -1        53 6.00778E+01
 -1        55 5.91987E+01
 -1        57 5.84113E+01
 -1        59 5.79534E+01
 -1        61 6.08651E+01
 -1        64 6.08651E+01
 -1        66 5.79534E+01
 -1        68 5.84113E+01
 -1        70 5.91987E+01
 -1        72 6.00778E+01
 -1        74 6.23107E+01
 -1        76 6.23107E+01
 -1        79 6.08651E+01
 -1        81 5.79534E+01
 -1        83 5.84113E+01
 -1        85 5.91987E+01
 -1        87 6.00778E+01
 -1        89 6.23107E+01
 -1        91 6.23107E+01
 -1        95 6.08651E+01
 -1       100 4.70004E+01
 -1       105 6.08651E+01
 -1       109 5.79534E+01
 -1       113 5.84113E+01
 -1       117 5.91987E+01
 -1       121 6.00778E+01
 -1       125 6.23107E+01
 -1       129 6.23107E+01
 -1       134 6.08651E+01
 -1       138 5.79534E+01
 -1       142 5.84113E+01
 -1       146 5.91987E+01
 -1       150 6.00778E+01
 -1       154 6.23107E+01
 -1       158 6.23107E+01
 -1       163 6.08651E+01
 -1       167 5.79534E+01
 -1       171 5.84113E+01
 -1       175 5.91987E+01
 -1       179 6.00778E+01
 -1       183 6.23107E+01
 -1       187 6.23107E+01
 -1       192 6.08651E+01
 -1       196 5.79534E+01
 -1       200 5.84113E+01
 -1       204 5.91987E+01
 -1       208 6.00778E+01
 -1       212 6.23107E+01
 -1       216 6.23107E+01
 -1       222 6.08651E+01
 -1       228 5.79534E+01
 -1       234 5.84113E+01
 -1       240 5.91987E+01
 -1       246 6.00778E+01
 -1       252 6.23107E+01
 -1       258 6.23107E+01
 -3
    1PSTEP                         1           1           2          
  100CL  102 0.00000E+00          81                     3    2           1
 -4  NORM        4    1
 -5  NORMX       1    2    1    0
 -5  NORMY       1    2    2    0
 -5  NORMZ       1    2    3    0
 -5  ALL         1    2    0    0    1ALL
 -1         1 0.00000E+00 0.00000E+00 0.00000E+00
 -1         2 0.00000E+00 0.00000E+00 0.00000E+00
 -1         3 0.00000E+00 0.00000E+00 0.00000E+00
 -1         4 0.00000E+00 0.00000E+00 0.00000E+00
 -1         5-5.77350E-01-5.77350E-01 5.77350E-01
 -1         6 5.77350E-01-5.77350E-01 5.77350E-01
 -1         7 5.77350E-01 5.77350E-01 5.77350E-01
 -1         8-5.77350E-01 5.77350E-01 5.77350E-01
 -1        10 0.00000E+00 0.00000E+00 0.00000E+00
 -1        13 0.00000E+00 0.00000E+00 0.00000E+00
 -1        16 0.00000E+00 0.00000E+00 0.00000E+00
 -1        19 0.00000E+00 0.00000E+00 0.00000E+00
 -1        22 0.00000E+00-7.07107E-01 7.07107E-01
 -1        25 7.07107E-01 0.00000E+00 7.07107E-01
 -1        28 0.00000E+00 7.07107E-01 7.07107E-01
 -1        31-7.07107E-01 0.00000E+00 7.07107E-01
 -1        34 7.07107E-01-7.07107E-01 0.00000E+00
 -1        36 7.07107E-01-7.07107E-01 0.00000E+00
 -1        38 7.07107E-01-7.07107E-01 0.00000E+00
 -1        40 7.07107E-01-7.07107E-01 0.00000E+00
 -1        42 7.07107E-01-7.07107E-01 0.00000E+00
 -1        44 7.07107E-01-7.07107E-01 0.00000E+00
 -1        46 7.07107E-01-7.07107E-01 0.00000E+00
 -1        49-7.07107E-01-7.07107E-01 0.00000E+00
 -1        51-7.07107E-01-7.07107E-01 0.00000E+00
 -1        53-7.07107E-01-7.07107E-01 0.00000E+00
 -1        55-7.07107E-01-7.07107E-01 0.00000E+00
 -1        57-7.07107E-01-7.07107E-01 0.00000E+00
 -1        59-7.07107E-01-7.07107E-01 0.00000E+00
 -1        61-7.07107E-01-7.07107E-01 0.00000E+00
 -1        64 7.07107E-01 7.07107E-01 0.00000E+00
 -1        66 7.07107E-01 7.07107E-01 0.00000E+00
 -1        68 7.07107E-01 7.07107E-01 0.00000E+00
 -1        70 7.07107E-01 7.07107E-01 0.00000E+00
 -1        72 7.07107E-01 7.07107E-01 0.00000E+00
 -1        74 7.07107E-01 7.07107E-01 0.00000E+00
 -1        76 7.07107E-01 7.07107E-01 0.00000E+00
 -1        79-7.07107E-01 7.07107E-01 0.00000E+00
 -1        81-7.07107E-01 7.07107E-01 0.00000E+00
 -1        83-7.07107E-01 7.07107E-01 0.00000E+00
 -1        85-7.07107E-01 7.07107E-01 0.00000E+00
 -1        87-7.07107E-01 7.07107E-01 0.00000E+00
 -1        89-7.07107E-01 7.07107E-01 0.00000E+00
 -1        91-7.07107E-01 7.07107E-01 0.00000E+00
 -1        95 0.00000E+00 0.00000E+00 0.00000E+00
 -1       100 0.00000E+00 0.00000E+00 1.00000E+00
 -1       105 0.00000E+00-1.00000E+00 0.00000E+00
 -1       109 0.00000E+00-1.00000E+00 0.00000E+00
 -1       113 0.00000E+00-1.00000E+00 0.00000E+00
 -1       117 0.00000E+00-1.00000E+00 0.00000E+00
 -1       121 0.00000E+00-1.00000E+00 0.00000E+00
 -1       125 0.00000E+00-1.00000E+00 0.00000E+00
 -1       129 0.00000E+00-1.00000E+00 0.00000E+00
 -1       134 1.00000E+00 0.00000E+00 0.00000E+00
 -1       138 1.00000E+00 0.00000E+00 0.00000E+00
 -1       142 1.00000E+00 0.00000E+00 0.00000E+00
 -1       146 1.00000E+00 0.00000E+00 0.00000E+00
 -1       150 1.00000E+00 0.00000E+00 0.00000E+00
 -1       154 1.00000E+00 0.00000E+00 0.00000E+00
 -1       158 1.00000E+00 0.00000E+00 0.00000E+00
 -1       163 0.00000E+00 1.00000E+00 0.00000E+00
 -1       167 0.00000E+00 1.00000E+00 0.00000E+00
 -1       171 0.00000E+00 1.00000E+00 0.00000E+00
 -1       175 0.00000E+00 1.00000E+00 0.00000E+00
 -1       179 0.00000E+00 1.00000E+00 0.00000E+00
 -1       183 0.00000E+00 1.00000E+00 0.00000E+00
 -1       187 0.00000E+00 1.00000E+00 0.00000E+00
 -1       192-1.00000E+00 0.00000E+00 0.00000E+00
 -1       196-1.00000E+00 0.00000E+00 0.00000E+00
 -1       200-1.00000E+00 0.00000E+00 0.00000E+00
 -1       204-1.00000E+00 0.00000E+00 0.00000E+00
 -1       208-1.00000E+00 0.00000E+00 0.00000E+00
 -1       212-1.00000E+00 0.00000E+00 0.00000E+00
 -1       216-1.00000E+00 0.00000E+00 0.00000E+00
 -1       222 0.00000E+00 0.00000E+00 0.00000E+00
 -1       228 0.00000E+00 0.00000E+00 0.00000E+00
 -1       234 0.00000E+00 0.00000E+00 0.00000E+00
 -1       240 0.00000E+00 0.00000E+00 0.00000E+00
 -1       246 0.00000E+00 0.00000E+00 0.00000E+00
 -1       252 0.00000E+00 0.00000E+00 0.00000E+00
 -1       258 0.00000E+00 0.00000E+00 0.00000E+00
 -3
    1PSTEP                         2           1           2          
  100CL  103 0.00000E+00          81                     3    3           1
 -4  SENMISE     2    1
 -5  DFDN        1    1    1    0
 -5  DFDNFIL     1    1    2    0
 -1         1 0.00000E+00 0.00000E+00
 -1         2 0.00000E+00 0.00000E+00
 -1         3 0.00000E+00 0.00000E+00
 -1         4 0.00000E+00 0.00000E+00
 -1         5-8.25349E-07-1.58988E-03
 -1         6-9.33029E-07-1.58989E-03
 -1         7-8.49265E-07-1.58988E-03
 -1         8-8.26027E-07-1.58987E-03
 -1        10 0.00000E+00 0.00000E+00
 -1        13 0.00000E+00 0.00000E+00
 -1        16 0.00000E+00 0.00000E+00
 -1        19 0.00000E+00 0.00000E+00
 -1        22-2.76960E-06-2.76473E-03
 -1        25-1.77419E-06 2.03937E-04
 -1        28-2.36907E-06-2.76470E-03
 -1        31-2.03382E-06 2.03927E-04
 -1        34-3.26832E-01-2.71009E-01
 -1        36-9.31372E-02-1.82113E-01
 -1        38-6.88082E-03-1.10527E-01
 -1        40-6.48018E-04-6.62820E-02
 -1        42-8.26633E-05-3.89234E-02
 -1        44-3.38182E-06-2.17173E-02
 -1        46-2.75321E-06-1.01756E-02
 -1        49-2.38500E-06-1.01756E-02
 -1        51-3.20134E-06-2.17173E-02
 -1        53-8.29729E-05-3.89234E-02
 -1        55-6.48588E-04-6.62820E-02
 -1        57-6.90354E-03-1.10529E-01
 -1        59-9.32997E-02-1.82114E-01
 -1        61-3.28258E-01-2.71200E-01
 -1        64-3.28145E-01-2.71176E-01
 -1        66-9.34311E-02-1.82128E-01
 -1        68-6.93448E-03-1.10537E-01
 -1        70-6.52260E-04-6.62843E-02
 -1        72-8.35699E-05-3.89240E-02
 -1        74-3.54985E-06-2.17174E-02
 -1        76-2.55508E-06-1.01756E-02
 -1        79-3.26720E-01-2.70986E-01
 -1        81-9.32687E-02-1.82127E-01
 -1        83-6.91177E-03-1.10535E-01
 -1        85-6.51631E-04-6.62844E-02
 -1        87-8.31165E-05-3.89240E-02
 -1        89-3.26156E-06-2.17174E-02
 -1        91-2.51520E-06-1.01756E-02
 -1        95 0.00000E+00 0.00000E+00
 -1       100 2.04149E-01 1.40307E-02
 -1       105-5.48264E-01-3.03749E-01
 -1       109-1.15786E-01-1.81623E-01
 -1       113-8.74250E-03-1.10909E-01
 -1       117-1.19857E-03-6.62594E-02
 -1       121-6.00340E-05-3.89283E-02
 -1       125-1.85736E-05-2.17258E-02
 -1       129-5.12766E-06-1.00973E-02
 -1       134-1.64105E-01-2.32575E-01
 -1       138-7.91210E-02-1.79872E-01
 -1       142-5.68835E-03-1.10545E-01
 -1       146-6.03996E-04-6.62266E-02
 -1       150-5.93269E-05-3.89271E-02
 -1       154-4.98159E-06-2.17182E-02
 -1       158-9.45959E-07-1.02297E-02
 -1       163-5.48099E-01-3.03715E-01
 -1       167-1.15995E-01-1.81644E-01
 -1       171-8.79171E-03-1.10919E-01
 -1       175-1.20348E-03-6.62623E-02
 -1       179-6.09701E-05-3.89291E-02
 -1       183-1.88882E-05-2.17260E-02
 -1       187-5.24972E-06-1.00973E-02
 -1       192-1.64105E-01-2.32575E-01
 -1       196-7.91210E-02-1.79872E-01
 -1       200-5.68831E-03-1.10545E-01
 -1       204-6.03905E-04-6.62265E-02