
                        S T E P       1


                                INCREMENT     1


 displacements (vx,vy,vz) for set NALL and time  0.1000000E+01

         1  0.000000E+00  0.000000E+00  0.000000E+00
         2  0.000000E+00  0.000000E+00  0.000000E+00
         3  0.000000E+00  0.000000E+00  0.000000E+00
         4  0.000000E+00  0.000000E+00  0.000000E+00
         5  1.883564E-03  1.883564E-03  1.000000E-01
         6 -1.883564E-03  1.883564E-03  1.000000E-01
         7 -1.883564E-03 -1.883564E-03  1.000000E-01
         8  1.883564E-03 -1.883564E-03  1.000000E-01
         9  0.000000E+00  0.000000E+00  0.000000E+00
        10  0.000000E+00  0.000000E+00  0.000000E+00
        11  0.000000E+00  0.000000E+00  0.000000E+00
        12  0.000000E+00  0.000000E+00  0.000000E+00
        13  0.000000E+00  0.000000E+00  0.000000E+00
        14  0.000000E+00  0.000000E+00  0.000000E+00
        15  0.000000E+00  0.000000E+00  0.000000E+00
        16  0.000000E+00  0.000000E+00  0.000000E+00
        17  0.000000E+00  0.000000E+00  0.000000E+00
        18  0.000000E+00  0.000000E+00  0.000000E+00
        19  0.000000E+00  0.000000E+00  0.000000E+00
        20  0.000000E+00  0.000000E+00  0.000000E+00
        21  9.417783E-04  1.883609E-03  1.000000E-01
        22 -1.362051E-14  1.883653E-03  1.000000E-01
        23 -9.417783E-04  1.883609E-03  1.000000E-01
        24 -1.883609E-03  9.417783E-04  1.000000E-01
        25 -1.883653E-03 -1.587066E-14  1.000000E-01
        26 -1.883609E-03 -9.417783E-04  1.000000E-01
        27 -9.417783E-04 -1.883609E-03  1.000000E-01
        28 -1.362401E-14 -1.883653E-03  1.000000E-01
        29  9.417783E-04 -1.883609E-03  1.000000E-01
        30  1.883609E-03 -9.417783E-04  1.000000E-01
        31  1.883653E-03 -1.592392E-14  1.000000E-01
        32  1.883609E-03  9.417783E-04  1.000000E-01
        33 -2.090416E-03  2.090416E-03  6.064465E-03
        34 -1.567773E-03  1.567773E-03  1.205703E-02
        35 -1.922737E-03  1.922737E-03  1.840553E-02
        36 -1.821904E-03  1.821904E-03  2.463154E-02
        37 -1.891596E-03  1.891596E-03  3.093953E-02
        38 -1.869623E-03  1.869623E-03  3.721106E-02
        39 -1.886523E-03  1.886523E-03  4.349236E-02
        40 -1.879756E-03  1.879756E-03  4.976882E-02
        41 -1.884310E-03  1.884310E-03  5.604932E-02
        42 -1.882559E-03  1.882559E-03  6.232761E-02
        43 -1.883862E-03  1.883862E-03  6.860649E-02
        44 -1.883302E-03  1.883302E-03  7.488502E-02
        45 -1.883674E-03  1.883674E-03  8.116389E-02
        46 -1.883521E-03  1.883521E-03  8.744257E-02
        47 -1.883639E-03  1.883639E-03  9.372129E-02
        48  1.883639E-03  1.883639E-03  9.372129E-02
        49  1.883521E-03  1.883521E-03  8.744257E-02
        50  1.883674E-03  1.883674E-03  8.116389E-02
        51  1.883302E-03  1.883302E-03  7.488502E-02
        52  1.883862E-03  1.883862E-03  6.860649E-02
        53  1.882559E-03  1.882559E-03  6.232761E-02
        54  1.884310E-03  1.884310E-03  5.604932E-02
        55  1.879756E-03  1.879756E-03  4.976882E-02
        56  1.886523E-03  1.886523E-03  4.349236E-02
        57  1.869623E-03  1.869623E-03  3.721106E-02
        58  1.891596E-03  1.891596E-03  3.093953E-02
        59  1.821904E-03  1.821904E-03  2.463154E-02
        60  1.922737E-03  1.922737E-03  1.840553E-02
        61  1.567773E-03  1.567773E-03  1.205703E-02
        62  2.090416E-03  2.090416E-03  6.064465E-03
        63 -2.090416E-03 -2.090416E-03  6.064465E-03
        64 -1.567773E-03 -1.567773E-03  1.205703E-02
        65 -1.922737E-03 -1.922737E-03  1.840553E-02
        66 -1.821904E-03 -1.821904E-03  2.463154E-02
        67 -1.891596E-03 -1.891596E-03  3.093953E-02
        68 -1.869623E-03 -1.869623E-03  3.721106E-02
        69 -1.886523E-03 -1.886523E-03  4.349236E-02
        70 -1.879756E-03 -1.879756E-03  4.976882E-02
        71 -1.884310E-03 -1.884310E-03  5.604932E-02
        72 -1.882559E-03 -1.882559E-03  6.232761E-02
        73 -1.883862E-03 -1.883862E-03  6.860649E-02
        74 -1.883302E-03 -1.883302E-03  7.488502E-02
        75 -1.883674E-03 -1.883674E-03  8.116389E-02
        76 -1.883521E-03 -1.883521E-03  8.744257E-02
        77 -1.883639E-03 -1.883639E-03  9.372129E-02
        78  2.090416E-03 -2.090416E-03  6.064465E-03
        79  1.567773E-03 -1.567773E-03  1.205703E-02
        80  1.922737E-03 -1.922737E-03  1.840553E-02
        81  1.821904E-03 -1.821904E-03  2.463154E-02
        82  1.891596E-03 -1.891596E-03  3.093953E-02
        83  1.869623E-03 -1.869623E-03  3.721106E-02
        84  1.886523E-03 -1.886523E-03  4.349236E-02
        85  1.879756E-03 -1.879756E-03  4.976882E-02
        86  1.884310E-03 -1.884310E-03  5.604932E-02
        87  1.882559E-03 -1.882559E-03  6.232761E-02
        88  1.883862E-03 -1.883862E-03  6.860649E-02
        89  1.883302E-03 -1.883302E-03  7.488502E-02
        90  1.883674E-03 -1.883674E-03  8.116389E-02
        91  1.883521E-03 -1.883521E-03  8.744257E-02
        92  1.883639E-03 -1.883639E-03  9.372129E-02
        93  0.000000E+00  0.000000E+00  0.000000E+00
        94  0.000000E+00  0.000000E+00  0.000000E+00
        95  0.000000E+00  0.000000E+00  0.000000E+00
        96  0.000000E+00  0.000000E+00  0.000000E+00
        97  0.000000E+00  0.000000E+00  0.000000E+00
        98 -1.354691E-14  9.418254E-04  1.000000E-01
        99  9.418254E-04 -1.587640E-14  1.000000E-01
       100 -1.354663E-14 -1.582935E-14  1.000000E-01
       101 -9.418254E-04 -1.581608E-14  1.000000E-01
       102 -1.358604E-14 -9.418254E-04  1.000000E-01
       103 -1.183644E-16  2.092300E-03  5.759828E-03
       104  7.898602E-04  1.602126E-03  1.210705E-02
       105 -6.095094E-16  1.643395E-03  1.219411E-02
       106 -7.898602E-04  1.602126E-03  1.210705E-02
       107 -1.304462E-15  1.888978E-03  1.837900E-02
       108  9.073856E-04  1.847850E-03  2.465203E-02
       109 -2.227385E-15  1.872382E-03  2.466843E-02
       110 -9.073856E-04  1.847850E-03  2.465203E-02
       111 -3.298754E-15  1.877882E-03  3.093068E-02
       112  9.354703E-04  1.879122E-03  3.721340E-02
       113 -4.462685E-15  1.889164E-03  3.721802E-02
       114 -9.354703E-04  1.879122E-03  3.721340E-02
       115 -5.724524E-15  1.881758E-03  4.349112E-02
       116  9.396237E-04  1.882983E-03  4.977038E-02
       117 -7.029398E-15  1.886090E-03  4.977147E-02
       118 -9.396237E-04  1.882983E-03  4.977038E-02
       119 -8.386263E-15  1.882924E-03  5.604855E-02
       120  9.413432E-04  1.883490E-03  6.232784E-02
       121 -9.753049E-15  1.884470E-03  6.232825E-02
       122 -9.413432E-04  1.883490E-03  6.232784E-02
       123 -1.095660E-14  1.883447E-03  6.860637E-02
       124  9.416298E-04  1.883584E-03  7.488517E-02
       125 -1.194357E-14  1.883857E-03  7.488527E-02
       126 -9.416298E-04  1.883584E-03  7.488517E-02
       127 -1.261618E-14  1.883556E-03  8.116382E-02
       128  9.417665E-04  1.883605E-03  8.744258E-02
       129 -1.317748E-14  1.883693E-03  8.744262E-02
       130 -9.417665E-04  1.883605E-03  8.744258E-02
       131 -1.348645E-14  1.883596E-03  9.372129E-02
       132 -2.092300E-03 -1.600128E-16  5.759828E-03
       133 -1.602126E-03  7.898602E-04  1.210705E-02
       134 -1.643395E-03 -7.966882E-16  1.219411E-02
       135 -1.602126E-03 -7.898602E-04  1.210705E-02
       136 -1.888978E-03 -1.715808E-15  1.837900E-02
       137 -1.847850E-03  9.073856E-04  2.465203E-02
       138 -1.872382E-03 -2.890455E-15  2.466843E-02
       139 -1.847850E-03 -9.073856E-04  2.465203E-02
       140 -1.877882E-03 -4.204102E-15  3.093068E-02
       141 -1.879122E-03  9.354703E-04  3.721340E-02
       142 -1.889164E-03 -5.631536E-15  3.721802E-02
       143 -1.879122E-03 -9.354703E-04  3.721340E-02
       144 -1.881758E-03 -7.104428E-15  4.349112E-02
       145 -1.882983E-03  9.396237E-04  4.977038E-02
       146 -1.886090E-03 -8.594205E-15  4.977147E-02
       147 -1.882983E-03 -9.396237E-04  4.977038E-02
       148 -1.882924E-03 -1.017259E-14  5.604855E-02
       149 -1.883490E-03  9.413432E-04  6.232784E-02
       150 -1.884470E-03 -1.166677E-14  6.232825E-02
       151 -1.883490E-03 -9.413432E-04  6.232784E-02
       152 -1.883447E-03 -1.309564E-14  6.860637E-02
       153 -1.883584E-03  9.416298E-04  7.488517E-02
       154 -1.883857E-03 -1.423880E-14  7.488527E-02
       155 -1.883584E-03 -9.416298E-04  7.488517E-02
       156 -1.883556E-03 -1.510457E-14  8.116382E-02
       157 -1.883605E-03  9.417665E-04  8.744258E-02
       158 -1.883693E-03 -1.561772E-14  8.744262E-02
       159 -1.883605E-03 -9.417665E-04  8.744258E-02
       160 -1.883596E-03 -1.579380E-14  9.372129E-02
       161 -1.884769E-16 -2.092300E-03  5.759828E-03
       162 -7.898602E-04 -1.602126E-03  1.210705E-02
       163 -7.353398E-16 -1.643395E-03  1.219411E-02
       164  7.898602E-04 -1.602126E-03  1.210705E-02
       165 -1.509247E-15 -1.888978E-03  1.837900E-02
       166 -9.073856E-04 -1.847850E-03  2.465203E-02
       167 -2.498310E-15 -1.872382E-03  2.466843E-02
       168  9.073856E-04 -1.847850E-03  2.465203E-02
       169 -3.613646E-15 -1.877882E-03  3.093068E-02
       170 -9.354703E-04 -1.879122E-03  3.721340E-02
       171 -4.829974E-15 -1.889164E-03  3.721802E-02
       172  9.354703E-04 -1.879122E-03  3.721340E-02
       173 -6.140606E-15 -1.881758E-03  4.349112E-02
       174 -9.396237E-04 -1.882983E-03  4.977038E-02
       175 -7.494168E-15 -1.886090E-03  4.977147E-02
       176  9.396237E-04 -1.882983E-03  4.977038E-02
       177 -8.883370E-15 -1.882924E-03  5.604855E-02
       178 -9.413432E-04 -1.883490E-03  6.232784E-02
       179 -1.019722E-14 -1.884470E-03  6.232825E-02
       180  9.413432E-04 -1.883490E-03  6.232784E-02
       181 -1.135615E-14 -1.883447E-03  6.860637E-02
       182 -9.416298E-04 -1.883584E-03  7.488517E-02
       183 -1.228928E-14 -1.883857E-03  7.488527E-02
       184  9.416298E-04 -1.883584E-03  7.488517E-02
       185 -1.289953E-14 -1.883556E-03  8.116382E-02
       186 -9.417665E-04 -1.883605E-03  8.744258E-02
       187 -1.332905E-14 -1.883693E-03  8.744262E-02
       188  9.417665E-04 -1.883605E-03  8.744258E-02
       189 -1.353442E-14 -1.883596E-03  9.372129E-02
       190  2.092300E-03 -2.250262E-16  5.759828E-03
       191  1.602126E-03 -7.898602E-04  1.210705E-02
       192  1.643395E-03 -9.340944E-16  1.219411E-02
       193  1.602126E-03  7.898602E-04  1.210705E-02
       194  1.888978E-03 -1.915236E-15  1.837900E-02
       195  1.847850E-03 -9.073856E-04  2.465203E-02
       196  1.872382E-03 -3.143211E-15  2.466843E-02
       197  1.847850E-03  9.073856E-04  2.465203E-02
       198  1.877882E-03 -4.519171E-15  3.093068E-02
       199  1.879122E-03 -9.354703E-04  3.721340E-02
       200  1.889164E-03 -6.002274E-15  3.721802E-02
       201  1.879122E-03  9.354703E-04  3.721340E-02
       202  1.881758E-03 -7.528798E-15  4.349112E-02
       203  1.882983E-03 -9.396237E-04  4.977038E-02
       204  1.886090E-03 -9.134315E-15  4.977147E-02
       205  1.882983E-03  9.396237E-04  4.977038E-02
       206  1.882924E-03 -1.067955E-14  5.604855E-02
       207  1.883490E-03 -9.413432E-04  6.232784E-02
       208  1.884470E-03 -1.218416E-14  6.232825E-02
       209  1.883490E-03  9.413432E-04  6.232784E-02
       210  1.883447E-03 -1.349159E-14  6.860637E-02
       211  1.883584E-03 -9.416298E-04  7.488517E-02
       212  1.883857E-03 -1.463651E-14  7.488527E-02
       213  1.883584E-03  9.416298E-04  7.488517E-02
       214  1.883556E-03 -1.534883E-14  8.116382E-02
       215  1.883605E-03 -9.417665E-04  8.744258E-02
       216  1.883693E-03 -1.578531E-14  8.744262E-02
       217  1.883605E-03  9.417665E-04  8.744258E-02
       218  1.883596E-03 -1.588194E-14  9.372129E-02
       219 -1.931401E-16 -2.469342E-16  5.439334E-03
       220 -6.637733E-16  8.227460E-04  1.225526E-02
       221  8.227460E-04 -9.323054E-16  1.225526E-02
       222 -7.020446E-16 -9.024628E-16  1.235013E-02
       223 -8.227460E-04 -8.663724E-16  1.225526E-02
       224 -7.306421E-16 -8.227460E-04  1.225526E-02
       225 -1.437422E-15 -1.845989E-15  1.835381E-02
       226 -2.309270E-15  9.336079E-04  2.468025E-02
       227  9.336079E-04 -3.097674E-15  2.468025E-02
       228 -2.373942E-15 -3.042864E-15  2.468974E-02
       229 -9.336079E-04 -2.968546E-15  2.468025E-02
       230 -2.440419E-15 -9.336079E-04  2.468025E-02
       231 -3.480587E-15 -4.377155E-15  3.093168E-02
       232 -4.569255E-15  9.448306E-04  3.721525E-02
       233  9.448306E-04 -5.926357E-15  3.721525E-02
       234 -4.673135E-15 -5.835068E-15  3.721404E-02
       235 -9.448306E-04 -5.732163E-15  3.721525E-02
       236 -4.758246E-15 -9.448306E-04  3.721525E-02
       237 -5.937443E-15 -7.324192E-15  4.349320E-02
       238 -7.145218E-15  9.429183E-04  4.977050E-02
       239  9.429183E-04 -8.992138E-15  4.977050E-02
       240 -7.274807E-15 -8.856274E-15  4.976913E-02
       241 -9.429183E-04 -8.728817E-15  4.977050E-02
       242 -7.382542E-15 -9.429183E-04  4.977050E-02
       243 -8.615794E-15 -1.042607E-14  5.604922E-02
       244 -9.863862E-15  9.422635E-04  6.232768E-02
       245  9.422635E-04 -1.202731E-14  6.232768E-02
       246 -9.953604E-15 -1.189080E-14  6.232722E-02
       247 -9.422635E-04 -1.177438E-14  6.232768E-02
       248 -1.007797E-14 -9.422635E-04  6.232768E-02
       249 -1.114243E-14 -1.326930E-14  6.860661E-02
       250 -1.197562E-14  9.419207E-04  7.488514E-02
       251  9.419207E-04 -1.448668E-14  7.488514E-02
       252 -1.204622E-14 -1.436779E-14  7.488497E-02
       253 -9.419207E-04 -1.429367E-14  7.488514E-02
       254 -1.213711E-14 -9.419207E-04  7.488514E-02
       255 -1.274024E-14 -1.519365E-14  8.116388E-02
       256 -1.318518E-14  9.418487E-04  8.744257E-02
       257  9.418487E-04 -1.566583E-14  8.744257E-02
       258 -1.319024E-14 -1.558996E-14  8.744253E-02
       259 -9.418487E-04 -1.559133E-14  8.744257E-02
       260 -1.325944E-14 -9.418487E-04  8.744257E-02
       261 -1.349985E-14 -1.585104E-14  9.372130E-02
