
                        S T E P       1


                                INCREMENT    10


 displacements (vx,vy,vz) for set N1 and time  0.1000000E-04

       100 -1.340338E-17 -1.474451E-02  9.633377E-19
