
                        S T E P       1


                                INCREMENT     1


 displacements (vx,vy,vz) for set NOUT and time  0.1000000E+01

       262  1.000000E+00  0.000000E+00  0.000000E+00
       263  0.000000E+00  0.000000E+00  0.000000E+00
       264  0.000000E+00  0.000000E+00  0.000000E+00
       265  0.000000E+00  0.000000E+00  0.000000E+00
       266  0.000000E+00  0.000000E+00  0.000000E+00
       267  0.000000E+00  0.000000E+00  0.000000E+00
       268  0.000000E+00  0.000000E+00  0.000000E+00
       269  0.000000E+00  0.000000E+00  0.000000E+00

 forces (fx,fy,fz) for set NOUT and time  0.1000000E+01

       262  5.713919E+03  0.000000E+00  0.000000E+00
       263 -7.275958E-12  0.000000E+00  0.000000E+00
       264 -9.386270E-12  0.000000E+00  0.000000E+00
       265  9.686515E+02  0.000000E+00  0.000000E+00
       266 -7.219114E-12  0.000000E+00  0.000000E+00
       267 -2.577671E-11  0.000000E+00  0.000000E+00
       268 -1.945644E-11  1.670643E+03 -3.901590E-11
       269 -4.862954E-11 -1.670643E+03 -6.785683E-13
