
                        S T E P       1


                                INCREMENT     1


 displacements (vx,vy,vz) for set NALL and time  0.1000000E+01

         1  0.000000E+00  0.000000E+00  0.000000E+00
         2  0.000000E+00  0.000000E+00  0.000000E+00
         3  0.000000E+00  0.000000E+00  0.000000E+00
         4  0.000000E+00  0.000000E+00  0.000000E+00
         5 -2.732374E-05  6.053273E-02  5.655433E-03
         6  2.732374E-05  6.053273E-02  5.655433E-03
         7 -2.732374E-05  6.053273E-02 -5.655433E-03
         8  2.732374E-05  6.053273E-02 -5.655433E-03
         9  0.000000E+00  0.000000E+00  0.000000E+00
        10  0.000000E+00  0.000000E+00  0.000000E+00
        11  0.000000E+00  0.000000E+00  0.000000E+00
        12  0.000000E+00  0.000000E+00  0.000000E+00
        13  0.000000E+00  0.000000E+00  0.000000E+00
        14  0.000000E+00  0.000000E+00  0.000000E+00
        15  0.000000E+00  0.000000E+00  0.000000E+00
        16  0.000000E+00  0.000000E+00  0.000000E+00
        17  0.000000E+00  0.000000E+00  0.000000E+00
        18  0.000000E+00  0.000000E+00  0.000000E+00
        19  0.000000E+00  0.000000E+00  0.000000E+00
        20  0.000000E+00  0.000000E+00  0.000000E+00
        21 -1.241528E-05  6.047156E-02  5.647422E-03
        22  8.784345E-14  6.046243E-02  5.634444E-03
        23  1.241528E-05  6.047156E-02  5.647422E-03
        24 -7.773666E-07  6.047805E-02  2.808440E-03
        25  8.667177E-14  6.044416E-02 -7.555805E-15
        26  7.773667E-07  6.047805E-02 -2.808440E-03
        27 -1.241528E-05  6.047156E-02 -5.647422E-03
        28  8.554972E-14  6.046243E-02 -5.634444E-03
        29  1.241528E-05  6.047156E-02 -5.647422E-03
        30 -7.773666E-07  6.047805E-02 -2.808440E-03
        31  8.675220E-14  6.044416E-02  7.376670E-15
        32  7.773667E-07  6.047805E-02  2.808440E-03
        33 -1.388741E-04  4.156497E-04  6.370742E-04
        34 -8.379234E-05  1.378920E-03  1.283164E-03
        35 -1.053671E-04  3.028442E-03  1.885834E-03
        36 -9.077224E-05  5.208917E-03  2.442114E-03
        37 -8.866456E-05  7.953888E-03  2.949208E-03
        38 -7.804965E-05  1.116871E-02  3.415275E-03
        39 -7.168570E-05  1.483541E-02  3.836992E-03
        40 -6.329889E-05  1.889688E-02  4.214686E-03
        41 -5.579864E-05  2.331520E-02  4.546959E-03
        42 -4.823891E-05  2.804400E-02  4.835443E-03
        43 -3.903496E-05  3.303840E-02  5.079654E-03
        44 -3.143691E-05  3.826081E-02  5.280568E-03
        45 -2.478423E-05  4.364455E-02  5.433739E-03
        46 -2.320415E-05  4.917830E-02  5.544407E-03
        47  2.162476E-06  5.479476E-02  5.613315E-03
        48 -2.162476E-06  5.479476E-02  5.613315E-03
        49  2.320415E-05  4.917830E-02  5.544407E-03
        50  2.478423E-05  4.364455E-02  5.433739E-03
        51  3.143691E-05  3.826081E-02  5.280568E-03
        52  3.903496E-05  3.303840E-02  5.079654E-03
        53  4.823891E-05  2.804400E-02  4.835443E-03
        54  5.579864E-05  2.331520E-02  4.546959E-03
        55  6.329889E-05  1.889688E-02  4.214686E-03
        56  7.168570E-05  1.483541E-02  3.836992E-03
        57  7.804965E-05  1.116871E-02  3.415275E-03
        58  8.866456E-05  7.953888E-03  2.949208E-03
        59  9.077224E-05  5.208917E-03  2.442114E-03
        60  1.053671E-04  3.028442E-03  1.885834E-03
        61  8.379234E-05  1.378920E-03  1.283164E-03
        62  1.388741E-04  4.156497E-04  6.370742E-04
        63  1.388741E-04  4.156497E-04 -6.370742E-04
        64  8.379234E-05  1.378920E-03 -1.283164E-03
        65  1.053671E-04  3.028442E-03 -1.885834E-03
        66  9.077224E-05  5.208917E-03 -2.442114E-03
        67  8.866456E-05  7.953888E-03 -2.949208E-03
        68  7.804965E-05  1.116871E-02 -3.415275E-03
        69  7.168570E-05  1.483541E-02 -3.836992E-03
        70  6.329889E-05  1.889688E-02 -4.214686E-03
        71  5.579864E-05  2.331520E-02 -4.546959E-03
        72  4.823891E-05  2.804400E-02 -4.835443E-03
        73  3.903496E-05  3.303840E-02 -5.079654E-03
        74  3.143691E-05  3.826081E-02 -5.280568E-03
        75  2.478423E-05  4.364455E-02 -5.433739E-03
        76  2.320415E-05  4.917830E-02 -5.544407E-03
        77 -2.162476E-06  5.479476E-02 -5.613315E-03
        78 -1.388741E-04  4.156497E-04 -6.370742E-04
        79 -8.379234E-05  1.378920E-03 -1.283164E-03
        80 -1.053671E-04  3.028442E-03 -1.885834E-03
        81 -9.077224E-05  5.208917E-03 -2.442114E-03
        82 -8.866456E-05  7.953888E-03 -2.949208E-03
        83 -7.804965E-05  1.116871E-02 -3.415275E-03
        84 -7.168570E-05  1.483541E-02 -3.836992E-03
        85 -6.329889E-05  1.889688E-02 -4.214686E-03
        86 -5.579864E-05  2.331520E-02 -4.546959E-03
        87 -4.823891E-05  2.804400E-02 -4.835443E-03
        88 -3.903496E-05  3.303840E-02 -5.079654E-03
        89 -3.143691E-05  3.826081E-02 -5.280568E-03
        90 -2.478423E-05  4.364455E-02 -5.433739E-03
        91 -2.320415E-05  4.917830E-02 -5.544407E-03
        92  2.162476E-06  5.479476E-02 -5.613315E-03
        93  0.000000E+00  0.000000E+00  0.000000E+00
        94  0.000000E+00  0.000000E+00  0.000000E+00
        95  0.000000E+00  0.000000E+00  0.000000E+00
        96  0.000000E+00  0.000000E+00  0.000000E+00
        97  0.000000E+00  0.000000E+00  0.000000E+00
        98  8.725954E-14  6.044672E-02  2.810178E-03
        99  8.674048E-14  6.044277E-02  3.598454E-15
       100  8.672002E-14  6.043366E-02 -1.382621E-16
       101  8.668579E-14  6.044277E-02 -3.844091E-15
       102  8.611846E-14  6.044672E-02 -2.810178E-03
       103  4.730824E-16  4.742685E-04  6.268859E-04
       104  4.153335E-05  1.423130E-03  1.290344E-03
       105  2.228564E-15  1.432305E-03  1.296549E-03
       106 -4.153335E-05  1.423130E-03  1.290344E-03
       107  4.923592E-15  3.077364E-03  1.884731E-03
       108  4.534739E-05  5.244951E-03  2.445110E-03
       109  8.583865E-15  5.259313E-03  2.446557E-03
       110 -4.534739E-05  5.244951E-03  2.445110E-03
       111  1.298755E-14  7.996819E-03  2.950512E-03
       112  3.901092E-05  1.119941E-02  3.417489E-03
       113  1.810574E-14  1.120961E-02  3.417596E-03
       114 -3.901092E-05  1.119941E-02  3.417489E-03
       115  2.379123E-14  1.487080E-02  3.838571E-03
       116  3.165237E-05  1.892056E-02  4.216529E-03
       117  2.998410E-14  1.892874E-02  4.216483E-03
       118 -3.165237E-05  1.892056E-02  4.216529E-03
       119  3.658012E-14  2.334333E-02  4.548655E-03
       120  2.409493E-05  2.806204E-02  4.837375E-03
       121  4.340898E-14  2.806720E-02  4.837213E-03
       122 -2.409493E-05  2.806204E-02  4.837375E-03
       123  5.057521E-14  3.305854E-02  5.081313E-03
       124  1.582535E-05  3.826852E-02  5.282092E-03
       125  5.783762E-14  3.827184E-02  5.281831E-03
       126 -1.582535E-05  3.826852E-02  5.282092E-03
       127  6.524848E-14  4.366078E-02  5.435504E-03
       128  1.112887E-05  4.918806E-02  5.546817E-03
       129  7.271787E-14  4.918054E-02  5.546979E-03
       130 -1.112887E-05  4.918806E-02  5.546817E-03
       131  8.035066E-14  5.479803E-02  5.613662E-03
       132  7.612772E-16  2.427068E-04 -1.034158E-15
       133 -4.247301E-05  1.292138E-03  6.358053E-04
       134  2.355409E-15  1.292540E-03 -2.158604E-15
       135  4.247301E-05  1.292138E-03 -6.358053E-04
       136  5.046066E-15  2.890633E-03 -3.086580E-15
       137 -4.528241E-05  5.134805E-03  1.214563E-03
       138  8.579920E-15  5.112469E-03 -3.953706E-15
       139  4.528241E-05  5.134805E-03 -1.214563E-03
       140  1.292789E-14  7.844921E-03 -4.702510E-15
       141 -3.904440E-05  1.109909E-02  1.701905E-03
       142  1.795741E-14  1.107862E-02 -5.372394E-15
       143  3.904440E-05  1.109909E-02 -1.701905E-03
       144  2.359279E-14  1.474826E-02 -5.932321E-15
       145 -3.169601E-05  1.884036E-02  2.101268E-03
       146  2.975636E-14  1.882170E-02 -6.389409E-15
       147  3.169601E-05  1.884036E-02 -2.101268E-03
       148  3.622914E-14  2.324854E-02 -6.738703E-15
       149 -2.390841E-05  2.800074E-02  2.412005E-03
       150  4.305406E-14  2.798590E-02 -6.991803E-15
       151  2.390841E-05  2.800074E-02 -2.412005E-03
       152  5.002714E-14  3.299146E-02 -7.201723E-15
       153 -1.661342E-05  3.822779E-02  2.633531E-03
       154  5.724501E-14  3.821507E-02 -7.327993E-15
       155  1.661342E-05  3.822779E-02 -2.633531E-03
       156  6.444845E-14  4.362182E-02 -7.441096E-15
       157 -8.130212E-06  4.916182E-02  2.769150E-03
       158  7.176584E-14  4.914995E-02 -7.507450E-15
       159  8.130212E-06  4.916182E-02 -2.769150E-03
       160  7.922900E-14  5.478998E-02 -7.555195E-15
       161  3.669343E-16  4.742685E-04 -6.268859E-04
       162  4.153335E-05  1.423130E-03 -1.290344E-03
       163  2.009650E-15  1.432305E-03 -1.296549E-03
       164 -4.153335E-05  1.423130E-03 -1.290344E-03
       165  4.584995E-15  3.077364E-03 -1.884731E-03
       166  4.534739E-05  5.244951E-03 -2.445110E-03
       167  8.122850E-15  5.259313E-03 -2.446557E-03
       168 -4.534739E-05  5.244951E-03 -2.445110E-03
       169  1.242184E-14  7.996819E-03 -2.950512E-03
       170  3.901092E-05  1.119941E-02 -3.417489E-03
       171  1.745397E-14  1.120961E-02 -3.417596E-03
       172 -3.901092E-05  1.119941E-02 -3.417489E-03
       173  2.308044E-14  1.487080E-02 -3.838571E-03
       174  3.165237E-05  1.892056E-02 -4.216529E-03
       175  2.920233E-14  1.892874E-02 -4.216483E-03
       176 -3.165237E-05  1.892056E-02 -4.216529E-03
       177  3.571322E-14  2.334333E-02 -4.548655E-03
       178  2.409493E-05  2.806204E-02 -4.837375E-03
       179  4.247470E-14  2.806720E-02 -4.837213E-03
       180 -2.409493E-05  2.806204E-02 -4.837375E-03
       181  4.941499E-14  3.305854E-02 -5.081313E-03
       182  1.582535E-05  3.826852E-02 -5.282092E-03
       183  5.645744E-14  3.827184E-02 -5.281831E-03
       184 -1.582535E-05  3.826852E-02 -5.282092E-03
       185  6.355520E-14  4.366078E-02 -5.435504E-03
       186  1.112887E-05  4.918806E-02 -5.546817E-03
       187  7.072988E-14  4.918054E-02 -5.546979E-03
       188 -1.112887E-05  4.918806E-02 -5.546817E-03
       189  7.806082E-14  5.479803E-02 -5.613662E-03
       190  7.549157E-16  2.427068E-04  1.008276E-15
       191 -4.247301E-05  1.292138E-03 -6.358053E-04
       192  2.350594E-15  1.292540E-03  2.099681E-15
       193  4.247301E-05  1.292138E-03  6.358053E-04
       194  5.040539E-15  2.890633E-03  3.002156E-15
       195 -4.528241E-05  5.134805E-03 -1.214563E-03
       196  8.567691E-15  5.112469E-03  3.841445E-15
       197  4.528241E-05  5.134805E-03  1.214563E-03
       198  1.292660E-14  7.844921E-03  4.566971E-15
       199 -3.904440E-05  1.109909E-02 -1.701905E-03
       200  1.796233E-14  1.107862E-02  5.202536E-15
       201  3.904440E-05  1.109909E-02  1.701905E-03
       202  2.359172E-14  1.474826E-02  5.727754E-15
       203 -3.169601E-05  1.884036E-02 -2.101268E-03
       204  2.973707E-14  1.882170E-02  6.170344E-15
       205  3.169601E-05  1.884036E-02  2.101268E-03
       206  3.623230E-14  2.324854E-02  6.490902E-15
       207 -2.390841E-05  2.800074E-02 -2.412005E-03
       208  4.307149E-14  2.798590E-02  6.731537E-15
       209  2.390841E-05  2.800074E-02  2.412005E-03
       210  5.002884E-14  3.299146E-02  6.912331E-15
       211 -1.661342E-05  3.822779E-02 -2.633531E-03
       212  5.723461E-14  3.821507E-02  7.062005E-15
       213  1.661342E-05  3.822779E-02  2.633531E-03
       214  6.442840E-14  4.362182E-02  7.157849E-15
       215 -8.130212E-06  4.916182E-02 -2.769150E-03
       216  7.179096E-14  4.914995E-02  7.254126E-15
       217  8.130212E-06  4.916182E-02  2.769150E-03
       218  7.919297E-14  5.478998E-02  7.329441E-15
       219  6.146686E-16  3.004072E-04 -1.263951E-17
       220  2.338976E-15  1.343341E-03  6.423189E-04
       221  2.301138E-15  1.335695E-03  1.018727E-15
       222  2.315036E-15  1.342663E-03 -2.878557E-17
       223  2.303422E-15  1.335695E-03 -1.076121E-15
       224  2.229207E-15  1.343341E-03 -6.423189E-04
       225  4.948411E-15  2.941840E-03 -4.116580E-17
       226  8.591218E-15  5.183243E-03  1.217579E-03
       227  8.530177E-15  5.146358E-03  1.881186E-15
       228  8.522764E-15  5.158773E-03 -5.235615E-17
       229  8.536589E-15  5.146358E-03 -1.992899E-15
       230  8.361679E-15  5.183243E-03 -1.217579E-03
       231  1.286294E-14  7.889142E-03 -6.892815E-17
       232  1.804188E-14  1.113905E-02  1.703959E-03
       233  1.792251E-14  1.110841E-02  2.546967E-15
       234  1.790622E-14  1.111771E-02 -8.543513E-17
       235  1.791655E-14  1.110841E-02 -2.715124E-15
       236  1.771504E-14  1.113905E-02 -1.703959E-03
       237  2.355611E-14  1.478416E-02 -1.007625E-16
       238  2.986126E-14  1.887221E-02  2.103015E-03
       239  2.970150E-14  1.884545E-02  3.018175E-15
       240  2.969179E-14  1.885345E-02 -1.062789E-16
       241  2.972088E-14  1.884545E-02 -3.234798E-15
       242  2.946525E-14  1.887221E-02 -2.103015E-03
       243  3.622319E-14  2.327628E-02 -1.296164E-16
       244  4.322616E-14  2.802446E-02  2.413694E-03
       245  4.304863E-14  2.800411E-02  3.289347E-15
       246  4.302442E-14  2.801045E-02 -1.377987E-16
       247  4.303415E-14  2.800411E-02 -3.552998E-15
       248  4.276395E-14  2.802446E-02 -2.413694E-03
       249  5.003140E-14  3.301065E-02 -1.464757E-16
       250  5.752179E-14  3.824254E-02  2.635450E-03
       251  5.722921E-14  3.822792E-02  3.446245E-15
       252  5.722853E-14  3.823238E-02 -1.598068E-16
       253  5.723460E-14  3.822792E-02 -3.740877E-15
       254  5.683776E-14  3.824254E-02 -2.635450E-03
       255  6.443283E-14  4.363311E-02 -1.332070E-16
       256  7.225456E-14  4.916618E-02  2.769370E-03
       257  7.176011E-14  4.915647E-02  3.560398E-15
       258  7.173652E-14  4.916093E-02 -1.324895E-16
       259  7.175510E-14  4.915647E-02 -3.827722E-15
       260  7.127033E-14  4.916618E-02 -2.769370E-03
       261  7.921219E-14  5.478844E-02 -1.305334E-16

 stresses (elem, integ.pnt.,sxx,syy,szz,sxy,sxz,syz) for set EALL and time  0.1000000E+01

         1   1  5.174957E+01  6.043377E+01  3.382391E+02 -5.964263E+00  2.253589E+01  1.714370E+01
         1   2  5.009794E+01  5.851097E+01  3.335491E+02  1.650757E+00  4.728445E+00  2.756891E+01
         1   3 -2.237970E+00 -1.404002E+01  7.387847E+01 -6.066645E+00  6.061837E+00 -9.547636E+00
         1   4 -2.655017E+00 -1.449936E+01  7.263505E+01  1.548576E+00  1.269836E+00  8.350265E-01
         1   5 -1.644149E+01 -1.212274E+01  3.037625E+02 -1.844366E+00 -1.097466E+01 -6.257064E-01
         1   6 -1.222428E+01 -9.131499E+00  3.130381E+02  8.358192E-01 -3.301207E+00 -2.156301E+00
         1   7 -8.959257E+00 -1.117955E+01  7.630237E+01 -2.415546E+00 -2.930003E+00  2.021204E+01
         1   8 -7.884849E+00 -1.047695E+01  7.871994E+01  2.653941E-01 -8.944204E-01  1.856997E+01
         2   1  5.009794E+01  5.851097E+01  3.335491E+02 -1.650757E+00 -4.728445E+00  2.756891E+01
         2   2  5.174957E+01  6.043377E+01  3.382391E+02  5.964263E+00 -2.253589E+01  1.714370E+01
         2   3 -2.655017E+00 -1.449936E+01  7.263505E+01 -1.548576E+00 -1.269836E+00  8.350265E-01
         2   4 -2.237970E+00 -1.404002E+01  7.387847E+01  6.066645E+00 -6.061837E+00 -9.547636E+00
         2   5 -1.222428E+01 -9.131499E+00  3.130381E+02 -8.358192E-01  3.301207E+00 -2.156301E+00
         2   6 -1.644149E+01 -1.212274E+01  3.037625E+02  1.844366E+00  1.097466E+01 -6.257064E-01
         2   7 -7.884849E+00 -1.047695E+01  7.871994E+01 -2.653941E-01  8.944204E-01  1.856997E+01
         2   8 -8.959257E+00 -1.117955E+01  7.630237E+01  2.415546E+00  2.930003E+00  2.021204E+01
         3   1  2.237970E+00  1.404002E+01 -7.387847E+01 -6.066645E+00 -6.061837E+00 -9.547636E+00
         3   2  2.655017E+00  1.449936E+01 -7.263505E+01  1.548576E+00 -1.269836E+00  8.350265E-01
         3   3 -5.174957E+01 -6.043377E+01 -3.382391E+02 -5.964263E+00 -2.253589E+01  1.714370E+01
         3   4 -5.009794E+01 -5.851097E+01 -3.335491E+02  1.650757E+00 -4.728445E+00  2.756891E+01
         3   5  8.959257E+00  1.117955E+01 -7.630237E+01 -2.415546E+00  2.930003E+00  2.021204E+01
         3   6  7.884849E+00  1.047695E+01 -7.871994E+01  2.653941E-01  8.944204E-01  1.856997E+01
         3   7  1.644149E+01  1.212274E+01 -3.037625E+02 -1.844366E+00  1.097466E+01 -6.257064E-01
         3   8  1.222428E+01  9.131499E+00 -3.130381E+02  8.358192E-01  3.301207E+00 -2.156301E+00
         4   1  2.655017E+00  1.449936E+01 -7.263505E+01 -1.548576E+00  1.269836E+00  8.350265E-01
         4   2  2.237970E+00  1.404002E+01 -7.387847E+01  6.066645E+00  6.061837E+00 -9.547636E+00
         4   3 -5.009794E+01 -5.851097E+01 -3.335491E+02 -1.650757E+00  4.728445E+00  2.756891E+01
         4   4 -5.174957E+01 -6.043377E+01 -3.382391E+02  5.964263E+00  2.253589E+01  1.714370E+01
         4   5  7.884849E+00  1.047695E+01 -7.871994E+01 -2.653941E-01 -8.944204E-01  1.856997E+01
         4   6  8.959257E+00  1.117955E+01 -7.630237E+01  2.415546E+00 -2.930003E+00  2.021204E+01
         4   7  1.222428E+01  9.131499E+00 -3.130381E+02 -8.358192E-01 -3.301207E+00 -2.156301E+00
         4   8  1.644149E+01  1.212274E+01 -3.037625E+02  1.844366E+00 -1.097466E+01 -6.257064E-01
         5   1  5.452409E+00 -1.696029E+00  2.894834E+02  3.090396E+00  5.018069E+00  1.019303E+01
         5   2  4.210905E+00 -3.742337E+00  2.840518E+02 -1.755398E+00  1.746335E+00  9.013089E+00
         5   3  1.058192E+01  1.732446E+01  8.677203E+01  2.916420E+00  1.314854E+00  8.723839E+00
         5   4  1.058504E+01  1.737778E+01  8.571905E+01 -1.929428E+00  4.623957E-01  8.070041E+00
         5   5 -3.656280E+00 -4.009308E+00  2.634979E+02 -6.196419E-01 -2.395539E+00  2.052045E+00
         5   6 -2.200093E+00 -2.829188E+00  2.663463E+02 -1.525002E-01 -1.019887E+00  2.388617E+00
         5   7 -2.569289E+00 -4.040997E+00  6.896724E+01 -6.330641E-01 -6.023533E-01  1.611678E+01
         5   8 -2.103100E+00 -3.618924E+00  6.987310E+01 -1.687380E-01 -2.095486E-01  1.544256E+01
         6   1  4.210905E+00 -3.742337E+00  2.840518E+02  1.755398E+00 -1.746335E+00  9.013089E+00
         6   2  5.452409E+00 -1.696029E+00  2.894834E+02 -3.090396E+00 -5.018069E+00  1.019303E+01
         6   3  1.058504E+01  1.737778E+01  8.571905E+01  1.929428E+00 -4.623957E-01  8.070041E+00
         6   4  1.058192E+01  1.732446E+01  8.677203E+01 -2.916420E+00 -1.314854E+00  8.723839E+00
         6   5 -2.200093E+00 -2.829188E+00  2.663463E+02  1.525002E-01  1.019887E+00  2.388617E+00
         6   6 -3.656280E+00 -4.009308E+00  2.634979E+02  6.196419E-01  2.395539E+00  2.052045E+00
         6   7 -2.103100E+00 -3.618924E+00  6.987310E+01  1.687380E-01  2.095486E-01  1.544256E+01
         6   8 -2.569289E+00 -4.040997E+00  6.896724E+01  6.330641E-01  6.023533E-01  1.611678E+01
         7   1 -1.058192E+01 -1.732446E+01 -8.677203E+01  2.916420E+00 -1.314854E+00  8.723839E+00
         7   2 -1.058504E+01 -1.737778E+01 -8.571905E+01 -1.929428E+00 -4.623957E-01  8.070041E+00
         7   3 -5.452409E+00  1.696029E+00 -2.894834E+02  3.090396E+00 -5.018069E+00  1.019303E+01
         7   4 -4.210905E+00  3.742337E+00 -2.840518E+02 -1.755398E+00 -1.746335E+00  9.013089E+00
         7   5  2.569289E+00  4.040997E+00 -6.896724E+01 -6.330641E-01  6.023533E-01  1.611678E+01
         7   6  2.103100E+00  3.618924E+00 -6.987310E+01 -1.687380E-01  2.095486E-01  1.544256E+01
         7   7  3.656280E+00  4.009308E+00 -2.634979E+02 -6.196419E-01  2.395539E+00  2.052045E+00
         7   8  2.200093E+00  2.829188E+00 -2.663463E+02 -1.525002E-01  1.019887E+00  2.388617E+00
         8   1 -1.058504E+01 -1.737778E+01 -8.571905E+01  1.929428E+00  4.623957E-01  8.070041E+00
         8   2 -1.058192E+01 -1.732446E+01 -8.677203E+01 -2.916420E+00  1.314854E+00  8.723839E+00
         8   3 -4.210905E+00  3.742337E+00 -2.840518E+02  1.755398E+00  1.746335E+00  9.013089E+00
         8   4 -5.452409E+00  1.696029E+00 -2.894834E+02 -3.090396E+00  5.018069E+00  1.019303E+01
         8   5  2.103100E+00  3.618924E+00 -6.987310E+01  1.687380E-01 -2.095486E-01  1.544256E+01
         8   6  2.569289E+00  4.040997E+00 -6.896724E+01  6.330641E-01 -6.023533E-01  1.611678E+01
         8   7  2.200093E+00  2.829188E+00 -2.663463E+02  1.525002E-01 -1.019887E+00  2.388617E+00
         8   8  3.656280E+00  4.009308E+00 -2.634979E+02  6.196419E-01 -2.395539E+00  2.052045E+00
         9   1  2.889689E+00  4.961925E+00  2.473625E+02 -1.691910E-01  8.221935E-01  6.950223E+00
         9   2  2.406141E+00  4.289356E+00  2.460393E+02  6.374124E-01  2.164203E-01  5.875619E+00
         9   3  8.997709E-02 -9.137841E-02  6.566307E+01 -2.381291E-01  3.267968E-01  1.214504E+01
         9   4 -1.726156E-01 -5.294215E-01  6.518222E+01  5.684889E-01  1.600964E-01  1.102911E+01
         9   5 -1.039217E+00 -1.293698E+00  2.217213E+02 -1.917341E-01 -8.803683E-01  4.533249E+00
         9   6 -6.774236E-01 -8.938389E-01  2.223403E+02 -9.962191E-02 -5.053019E-01  4.269082E+00
         9   7 -7.660314E-01 -1.336739E+00  5.901308E+01 -1.151073E-01 -1.224007E-01  1.418239E+01
         9   8 -5.900356E-01 -1.082694E+00  5.926473E+01 -1.248717E-02 -2.628598E-02  1.301528E+01
        10   1  2.406141E+00  4.289356E+00  2.460393E+02 -6.374124E-01 -2.164203E-01  5.875619E+00
        10   2  2.889689E+00  4.961925E+00  2.473625E+02  1.691910E-01 -8.221935E-01  6.950223E+00
        10   3 -1.726156E-01 -5.294215E-01  6.518222E+01 -5.684889E-01 -1.600964E-01  1.102911E+01
        10   4  8.997709E-02 -9.137841E-02  6.566307E+01  2.381291E-01 -3.267968E-01  1.214504E+01
        10   5 -6.774236E-01 -8.938389E-01  2.223403E+02  9.962191E-02  5.053019E-01  4.269082E+00
        10   6 -1.039217E+00 -1.293698E+00  2.217213E+02  1.917341E-01  8.803683E-01  4.533249E+00
        10   7 -5.900356E-01 -1.082694E+00  5.926473E+01  1.248717E-02  2.628598E-02  1.301528E+01
        10   8 -7.660314E-01 -1.336739E+00  5.901308E+01  1.151073E-01  1.224007E-01  1.418239E+01
        11   1 -8.997709E-02  9.137841E-02 -6.566307E+01 -2.381291E-01 -3.267968E-01  1.214504E+01
        11   2  1.726156E-01  5.294215E-01 -6.518222E+01  5.684889E-01 -1.600964E-01  1.102911E+01
        11   3 -2.889689E+00 -4.961925E+00 -2.473625E+02 -1.691910E-01 -8.221935E-01  6.950223E+00
        11   4 -2.406141E+00 -4.289356E+00 -2.460393E+02  6.374124E-01 -2.164203E-01  5.875619E+00
        11   5  7.660314E-01  1.336739E+00 -5.901308E+01 -1.151073E-01  1.224007E-01  1.418239E+01
        11   6  5.900356E-01  1.082694E+00 -5.926473E+01 -1.248717E-02  2.628598E-02  1.301528E+01
        11   7  1.039217E+00  1.293698E+00 -2.217213E+02 -1.917341E-01  8.803683E-01  4.533249E+00
        11   8  6.774236E-01  8.938389E-01 -2.223403E+02 -9.962191E-02  5.053019E-01  4.269082E+00
        12   1  1.726156E-01  5.294215E-01 -6.518222E+01 -5.684889E-01  1.600964E-01  1.102911E+01
        12   2 -8.997709E-02  9.137841E-02 -6.566307E+01  2.381291E-01  3.267968E-01  1.214504E+01
        12   3 -2.406141E+00 -4.289356E+00 -2.460393E+02 -6.374124E-01  2.164203E-01  5.875619E+00
        12   4 -2.889689E+00 -4.961925E+00 -2.473625E+02  1.691910E-01  8.221935E-01  6.950223E+00
        12   5  5.900356E-01  1.082694E+00 -5.926473E+01  1.248717E-02 -2.628598E-02  1.301528E+01
        12   6  7.660314E-01  1.336739E+00 -5.901308E+01  1.151073E-01 -1.224007E-01  1.418239E+01
        12   7  6.774236E-01  8.938389E-01 -2.223403E+02  9.962191E-02 -5.053019E-01  4.269082E+00
        12   8  1.039217E+00  1.293698E+00 -2.217213E+02  1.917341E-01 -8.803683E-01  4.533249E+00
        13   1  3.758029E-01  1.463257E-01  2.039588E+02  2.803094E-01  2.703027E-02  5.975544E+00
        13   2  2.014402E-01 -1.378240E-01  2.035738E+02 -5.110819E-02 -2.084012E-01  5.254877E+00
        13   3  8.676791E-01  1.547119E+00  5.538430E+01  1.968273E-01  1.174403E-01  1.293584E+01
        13   4  7.648465E-01  1.365723E+00  5.522192E+01 -1.345941E-01  5.339690E-02  1.183373E+01
        13   5 -2.893601E-01 -4.436054E-01  1.793049E+02 -1.086517E-01 -4.332537E-01  5.084813E+00
        13   6 -1.448612E-01 -2.070975E-01  1.795083E+02 -2.215536E-02 -3.422833E-01  4.627288E+00
        13   7 -2.844947E-01 -4.575019E-01  4.780958E+01 -3.911309E-02 -9.119369E-03  1.369689E+01
        13   8 -1.946935E-01 -2.948178E-01  4.791207E+01  8.167253E-03  1.429634E-02  1.259101E+01
        14   1  2.014402E-01 -1.378240E-01  2.035738E+02  5.110819E-02  2.084012E-01  5.254877E+00
        14   2  3.758029E-01  1.463257E-01  2.039588E+02 -2.803094E-01 -2.703027E-02  5.975544E+00
        14   3  7.648465E-01  1.365723E+00  5.522192E+01  1.345941E-01 -5.339690E-02  1.183373E+01
        14   4  8.676791E-01  1.547119E+00  5.538430E+01 -1.968273E-01 -1.174403E-01  1.293584E+01
        14   5 -1.448612E-01 -2.070975E-01  1.795083E+02  2.215536E-02  3.422833E-01  4.627288E+00
        14   6 -2.893601E-01 -4.436054E-01  1.793049E+02  1.086517E-01  4.332537E-01  5.084813E+00
        14   7 -1.946935E-01 -2.948178E-01  4.791207E+01 -8.167253E-03 -1.429634E-02  1.259101E+01
        14   8 -2.844947E-01 -4.575019E-01  4.780958E+01  3.911309E-02  9.119369E-03  1.369689E+01
        15   1 -8.676791E-01 -1.547119E+00 -5.538430E+01  1.968273E-01 -1.174403E-01  1.293584E+01
        15   2 -7.648465E-01 -1.365723E+00 -5.522192E+01 -1.345941E-01 -5.339690E-02  1.183373E+01
        15   3 -3.758029E-01 -1.463257E-01 -2.039588E+02  2.803094E-01 -2.703027E-02  5.975544E+00
        15   4 -2.014402E-01  1.378240E-01 -2.035738E+02 -5.110819E-02  2.084012E-01  5.254877E+00
        15   5  2.844947E-01  4.575019E-01 -4.780958E+01 -3.911309E-02  9.119369E-03  1.369689E+01
        15   6  1.946935E-01  2.948178E-01 -4.791207E+01  8.167253E-03 -1.429634E-02  1.259101E+01
        15   7  2.893601E-01  4.436054E-01 -1.793049E+02 -1.086517E-01  4.332537E-01  5.084813E+00
        15   8  1.448612E-01  2.070975E-01 -1.795083E+02 -2.215536E-02  3.422833E-01  4.627288E+00
        16   1 -7.648465E-01 -1.365723E+00 -5.522192E+01  1.345941E-01  5.339690E-02  1.183373E+01
        16   2 -8.676791E-01 -1.547119E+00 -5.538430E+01 -1.968273E-01  1.174403E-01  1.293584E+01
        16   3 -2.014402E-01  1.378240E-01 -2.035738E+02  5.110819E-02 -2.084012E-01  5.254877E+00
        16   4 -3.758029E-01 -1.463257E-01 -2.039588E+02 -2.803094E-01  2.703027E-02  5.975544E+00
        16   5  1.946935E-01  2.948178E-01 -4.791207E+01 -8.167253E-03  1.429634E-02  1.259101E+01
        16   6  2.844947E-01  4.575019E-01 -4.780958E+01  3.911309E-02 -9.119369E-03  1.369689E+01
        16   7  1.448612E-01  2.070975E-01 -1.795083E+02  2.215536E-02 -3.422833E-01  4.627288E+00
        16   8  2.893601E-01  4.436054E-01 -1.793049E+02  1.086517E-01 -4.332537E-01  5.084813E+00
        17   1  2.793263E-01  4.915420E-01  1.614075E+02  3.871978E-02 -2.655197E-01  5.419455E+00
        17   2  1.855871E-01  3.132776E-01  1.612771E+02  9.261484E-02 -2.797683E-01  4.897195E+00
        17   3  1.166907E-01  1.811004E-01  4.332960E+01 -2.568161E-02  1.965262E-02  1.340313E+01
        17   4  2.565556E-02  9.340791E-03  4.322567E+01  2.821449E-02  2.499502E-02  1.228022E+01
        17   5 -2.802698E-01 -2.396537E-01  1.367499E+02 -1.803223E-02 -2.565572E-01  5.513727E+00
        17   6 -1.802995E-01 -1.666086E-01  1.368184E+02 -2.105624E-01 -3.171566E-01  4.852397E+00
        17   7 -1.901785E-01 -4.300011E-01  3.651593E+01  5.409188E-02  1.886634E-02  1.334157E+01
        17   8 -5.851087E-02 -2.084712E-01  3.663610E+01  7.917701E-03  1.178908E-02  1.229230E+01
        18   1  1.855871E-01  3.132776E-01  1.612771E+02 -9.261484E-02  2.797683E-01  4.897195E+00
        18   2  2.793263E-01  4.915420E-01  1.614075E+02 -3.871978E-02  2.655197E-01  5.419455E+00
        18   3  2.565556E-02  9.340791E-03  4.322567E+01 -2.821449E-02 -2.499502E-02  1.228022E+01
        18   4  1.166907E-01  1.811004E-01  4.332960E+01  2.568161E-02 -1.965262E-02  1.340313E+01
        18   5 -1.802995E-01 -1.666086E-01  1.368184E+02  2.105624E-01  3.171566E-01  4.852397E+00
        18   6 -2.802698E-01 -2.396537E-01  1.367499E+02  1.803223E-02  2.565572E-01  5.513727E+00
        18   7 -5.851087E-02 -2.084712E-01  3.663610E+01 -7.917701E-03 -1.178908E-02  1.229230E+01
        18   8 -1.901785E-01 -4.300011E-01  3.651593E+01 -5.409188E-02 -1.886634E-02  1.334157E+01
        19   1 -1.166907E-01 -1.811004E-01 -4.332960E+01 -2.568161E-02 -1.965262E-02  1.340313E+01
        19   2 -2.565556E-02 -9.340791E-03 -4.322567E+01  2.821449E-02 -2.499502E-02  1.228022E+01
        19   3 -2.793263E-01 -4.915420E-01 -1.614075E+02  3.871978E-02  2.655197E-01  5.419455E+00
        19   4 -1.855871E-01 -3.132776E-01 -1.612771E+02  9.261484E-02  2.797683E-01  4.897195E+00
        19   5  1.901785E-01  4.300011E-01 -3.651593E+01  5.409188E-02 -1.886634E-02  1.334157E+01
        19   6  5.851087E-02  2.084712E-01 -3.663610E+01  7.917701E-03 -1.178908E-02  1.229230E+01
        19   7  2.802698E-01  2.396537E-01 -1.367499E+02 -1.803223E-02  2.565572E-01  5.513727E+00
        19   8  1.802995E-01  1.666086E-01 -1.368184E+02 -2.105624E-01  3.171566E-01  4.852397E+00
        20   1 -2.565556E-02 -9.340791E-03 -4.322567E+01 -2.821449E-02  2.499502E-02  1.228022E+01
        20   2 -1.166907E-01 -1.811004E-01 -4.332960E+01  2.568161E-02  1.965262E-02  1.340313E+01
        20   3 -1.855871E-01 -3.132776E-01 -1.612771E+02 -9.261484E-02 -2.797683E-01  4.897195E+00
        20   4 -2.793263E-01 -4.915420E-01 -1.614075E+02 -3.871978E-02 -2.655197E-01  5.419455E+00
        20   5  5.851087E-02  2.084712E-01 -3.663610E+01 -7.917701E-03  1.178908E-02  1.229230E+01
        20   6  1.901785E-01  4.300011E-01 -3.651593E+01 -5.409188E-02  1.886634E-02  1.334157E+01
        20   7  1.802995E-01  1.666086E-01 -1.368184E+02  2.105624E-01 -3.171566E-01  4.852397E+00
        20   8  2.802698E-01  2.396537E-01 -1.367499E+02  1.803223E-02 -2.565572E-01  5.513727E+00