
                        S T E P       1


                                INCREMENT     1


 displacements (vx,vy,vz) for set N1 and time  0.3315610E-07

       100  2.176352E-23 -3.854842E-24  1.386053E-05

                                INCREMENT     2


 displacements (vx,vy,vz) for set N1 and time  0.6631219E-07

       100 -4.265142E-22 -1.059488E-21  5.372561E-05

                                INCREMENT     3


 displacements (vx,vy,vz) for set N1 and time  0.9946829E-07

       100 -1.508712E-21 -4.515660E-21  1.144653E-04

                                INCREMENT     4


 displacements (vx,vy,vz) for set N1 and time  0.1326244E-06

       100 -2.604002E-21 -1.061917E-20  1.885808E-04

                                INCREMENT     5


 displacements (vx,vy,vz) for set N1 and time  0.1657805E-06

       100 -2.950854E-21 -2.542026E-20  2.681285E-04

                                INCREMENT     6


 displacements (vx,vy,vz) for set N1 and time  0.1989366E-06

       100 -2.539981E-21 -4.842609E-20  3.463081E-04

                                INCREMENT     7


 displacements (vx,vy,vz) for set N1 and time  0.2320927E-06

       100 -2.583618E-21 -7.081941E-20  4.185186E-04

                                INCREMENT     8


 displacements (vx,vy,vz) for set N1 and time  0.2652488E-06

       100 -3.653273E-21 -9.450742E-20  4.827195E-04

                                INCREMENT     9


 displacements (vx,vy,vz) for set N1 and time  0.2984049E-06

       100 -6.721964E-21 -1.216369E-19  5.391827E-04

                                INCREMENT    10


 displacements (vx,vy,vz) for set N1 and time  0.3315610E-06

       100 -1.088193E-20 -1.429765E-19  5.898686E-04

                                INCREMENT    11


 displacements (vx,vy,vz) for set N1 and time  0.3647171E-06

       100 -1.065468E-20 -1.472561E-19  6.376714E-04

                                INCREMENT    12


 displacements (vx,vy,vz) for set N1 and time  0.3978732E-06

       100 -3.019192E-21 -1.360581E-19  6.856872E-04

                                INCREMENT    13


 displacements (vx,vy,vz) for set N1 and time  0.4310293E-06

       100  1.084625E-20 -1.207212E-19  7.365699E-04

                                INCREMENT    14


 displacements (vx,vy,vz) for set N1 and time  0.4641854E-06

       100  2.750498E-20 -1.068407E-19  7.919986E-04

                                INCREMENT    15


 displacements (vx,vy,vz) for set N1 and time  0.4973415E-06

       100  4.252587E-20 -9.076984E-20  8.523159E-04

                                INCREMENT    16


 displacements (vx,vy,vz) for set N1 and time  0.5304976E-06

       100  5.523719E-20 -7.362133E-20  9.164443E-04

                                INCREMENT    17


 displacements (vx,vy,vz) for set N1 and time  0.5636537E-06

       100  6.807517E-20 -6.341287E-20  9.821784E-04

                                INCREMENT    18


 displacements (vx,vy,vz) for set N1 and time  0.5968098E-06

       100  5.718911E-20 -6.255050E-20  1.046854E-03

                                INCREMENT    19


 displacements (vx,vy,vz) for set N1 and time  0.6299658E-06

       100 -1.804939E-19 -7.492106E-20  1.108230E-03

                                INCREMENT    20


 displacements (vx,vy,vz) for set N1 and time  0.6631219E-06

       100 -1.695317E-18 -1.073241E-19  1.165278E-03

                                INCREMENT    21


 displacements (vx,vy,vz) for set N1 and time  0.6962780E-06

       100 -8.248942E-18 -1.819689E-19  1.218559E-03

                                INCREMENT    22


 displacements (vx,vy,vz) for set N1 and time  0.7294341E-06

       100 -2.770025E-17 -3.554003E-19  1.269992E-03

                                INCREMENT    23


 displacements (vx,vy,vz) for set N1 and time  0.7625902E-06

       100 -5.489287E-17 -5.560114E-19  1.322077E-03

                                INCREMENT    24


 displacements (vx,vy,vz) for set N1 and time  0.7957463E-06

       100  4.369582E-17  9.390906E-19  1.376876E-03

                                INCREMENT    25


 displacements (vx,vy,vz) for set N1 and time  0.8289024E-06

       100  9.884032E-16  1.555459E-17  1.435181E-03

                                INCREMENT    26


 displacements (vx,vy,vz) for set N1 and time  0.8620585E-06

       100  5.459282E-15  9.683551E-17  1.496221E-03

                                INCREMENT    27


 displacements (vx,vy,vz) for set N1 and time  0.8952146E-06

       100  2.140015E-14  4.499747E-16  1.558027E-03

                                INCREMENT    28


 displacements (vx,vy,vz) for set N1 and time  0.9283707E-06

       100  6.852157E-14  1.753609E-15  1.618289E-03

                                INCREMENT    29


 displacements (vx,vy,vz) for set N1 and time  0.9615268E-06

       100  1.886469E-13  5.998103E-15  1.675326E-03

                                INCREMENT    30


 displacements (vx,vy,vz) for set N1 and time  0.9946829E-06

       100  4.582869E-13  1.844586E-14  1.728751E-03

                                INCREMENT    31


 displacements (vx,vy,vz) for set N1 and time  0.1027839E-05

       100  9.980273E-13  5.177701E-14  1.779613E-03

                                INCREMENT    32


 displacements (vx,vy,vz) for set N1 and time  0.1060995E-05

       100  1.970157E-12  1.340489E-13  1.829975E-03

                                INCREMENT    33


 displacements (vx,vy,vz) for set N1 and time  0.1094151E-05

       100  3.557921E-12  3.225787E-13  1.882173E-03

                                INCREMENT    34


 displacements (vx,vy,vz) for set N1 and time  0.1127307E-05

       100  5.930763E-12  7.258642E-13  1.938055E-03

                                INCREMENT    35


 displacements (vx,vy,vz) for set N1 and time  0.1160463E-05

       100  9.216776E-12  1.534627E-12  1.998452E-03

                                INCREMENT    36


 displacements (vx,vy,vz) for set N1 and time  0.1193620E-05

       100  1.351004E-11  3.060376E-12  2.063018E-03

                                INCREMENT    37


 displacements (vx,vy,vz) for set N1 and time  0.1226776E-05

       100  1.891025E-11  5.775156E-12  2.130376E-03

                                INCREMENT    38


 displacements (vx,vy,vz) for set N1 and time  0.1259932E-05

       100  2.551028E-11  1.033948E-11  2.198478E-03

                                INCREMENT    39


 displacements (vx,vy,vz) for set N1 and time  0.1293088E-05

       100  3.314682E-11  1.759739E-11  2.265053E-03

                                INCREMENT    40


 displacements (vx,vy,vz) for set N1 and time  0.1326244E-05

       100  4.071315E-11  2.850925E-11  2.328062E-03

                                INCREMENT    41


 displacements (vx,vy,vz) for set N1 and time  0.1359400E-05

       100  4.504101E-11  4.398503E-11  2.386144E-03

                                INCREMENT    42


 displacements (vx,vy,vz) for set N1 and time  0.1392556E-05

       100  3.984519E-11  6.457452E-11  2.438976E-03

                                INCREMENT    43


 displacements (vx,vy,vz) for set N1 and time  0.1425712E-05

       100  1.580396E-11  8.996862E-11  2.487474E-03

                                INCREMENT    44


 displacements (vx,vy,vz) for set N1 and time  0.1458868E-05

       100 -3.697603E-11  1.182747E-10  2.533713E-03

                                INCREMENT    45


 displacements (vx,vy,vz) for set N1 and time  0.1492024E-05

       100 -1.237009E-10  1.450624E-10  2.580487E-03

                                INCREMENT    46


 displacements (vx,vy,vz) for set N1 and time  0.1525180E-05

       100 -2.384940E-10  1.622551E-10  2.630575E-03

                                INCREMENT    47


 displacements (vx,vy,vz) for set N1 and time  0.1558337E-05

       100 -3.610431E-10  1.570836E-10  2.685897E-03

                                INCREMENT    48


 displacements (vx,vy,vz) for set N1 and time  0.1591493E-05

       100 -4.615298E-10  1.115100E-10  2.746859E-03

                                INCREMENT    49


 displacements (vx,vy,vz) for set N1 and time  0.1624649E-05

       100 -5.164451E-10  2.708719E-12  2.812158E-03

                                INCREMENT    50


 displacements (vx,vy,vz) for set N1 and time  0.1657805E-05

       100 -5.307946E-10 -1.947826E-10  2.879159E-03

                                INCREMENT    51


 displacements (vx,vy,vz) for set N1 and time  0.1690961E-05

       100 -5.532320E-10 -5.049511E-10  2.944743E-03

                                INCREMENT    52


 displacements (vx,vy,vz) for set N1 and time  0.1724117E-05

       100 -6.660841E-10 -9.447713E-10  3.006307E-03

                                INCREMENT    53


 displacements (vx,vy,vz) for set N1 and time  0.1757273E-05

       100 -9.392668E-10 -1.519097E-09  3.062573E-03

                                INCREMENT    54


 displacements (vx,vy,vz) for set N1 and time  0.1790429E-05

       100 -1.358369E-09 -2.219294E-09  3.113895E-03

                                INCREMENT    55


 displacements (vx,vy,vz) for set N1 and time  0.1823585E-05

       100 -1.765428E-09 -3.029795E-09  3.161995E-03

                                INCREMENT    56


 displacements (vx,vy,vz) for set N1 and time  0.1856741E-05

       100 -1.868431E-09 -3.946057E-09  3.209264E-03

                                INCREMENT    57


 displacements (vx,vy,vz) for set N1 and time  0.1889898E-05

       100 -1.361899E-09 -5.004433E-09  3.257921E-03

                                INCREMENT    58


 displacements (vx,vy,vz) for set N1 and time  0.1923054E-05

       100 -1.474918E-10 -6.319366E-09  3.309301E-03

                                INCREMENT    59


 displacements (vx,vy,vz) for set N1 and time  0.1956210E-05

       100  1.433241E-09 -8.117668E-09  3.363487E-03

                                INCREMENT    60


 displacements (vx,vy,vz) for set N1 and time  0.1989366E-05

       100  2.498772E-09 -1.075649E-08  3.419296E-03

                                INCREMENT    61


 displacements (vx,vy,vz) for set N1 and time  0.2022522E-05

       100  1.790429E-09 -1.471452E-08  3.474544E-03

                                INCREMENT    62


 displacements (vx,vy,vz) for set N1 and time  0.2055678E-05

       100 -1.884308E-09 -2.055708E-08  3.526461E-03

                                INCREMENT    63


 displacements (vx,vy,vz) for set N1 and time  0.2088834E-05

       100 -9.090877E-09 -2.889367E-08  3.572144E-03

                                INCREMENT    64


 displacements (vx,vy,vz) for set N1 and time  0.2121990E-05

       100 -1.940718E-08 -4.036453E-08  3.608987E-03

                                INCREMENT    65


 displacements (vx,vy,vz) for set N1 and time  0.2155146E-05

       100 -3.159380E-08 -5.569998E-08  3.635054E-03

                                INCREMENT    66


 displacements (vx,vy,vz) for set N1 and time  0.2188302E-05

       100 -4.442237E-08 -7.588206E-08  3.649352E-03

                                INCREMENT    67


 displacements (vx,vy,vz) for set N1 and time  0.2221459E-05

       100 -5.791526E-08 -1.023977E-07  3.651923E-03

                                INCREMENT    68


 displacements (vx,vy,vz) for set N1 and time  0.2254615E-05

       100 -7.438347E-08 -1.375144E-07  3.643689E-03

                                INCREMENT    69


 displacements (vx,vy,vz) for set N1 and time  0.2287771E-05

       100 -9.853577E-08 -1.844564E-07  3.626038E-03

                                INCREMENT    70


 displacements (vx,vy,vz) for set N1 and time  0.2320927E-05

       100 -1.362479E-07 -2.473446E-07  3.600253E-03

                                INCREMENT    71


 displacements (vx,vy,vz) for set N1 and time  0.2354083E-05

       100 -1.922815E-07 -3.308092E-07  3.566981E-03

                                INCREMENT    72


 displacements (vx,vy,vz) for set N1 and time  0.2387239E-05

       100 -2.680218E-07 -4.393051E-07  3.525965E-03

                                INCREMENT    73


 displacements (vx,vy,vz) for set N1 and time  0.2420395E-05

       100 -3.606830E-07 -5.763044E-07  3.476195E-03

                                INCREMENT    74


 displacements (vx,vy,vz) for set N1 and time  0.2453551E-05

       100 -4.650421E-07 -7.436599E-07  3.416460E-03

                                INCREMENT    75


 displacements (vx,vy,vz) for set N1 and time  0.2486707E-05

       100 -5.775660E-07 -9.414313E-07  3.346099E-03

                                INCREMENT    76


 displacements (vx,vy,vz) for set N1 and time  0.2519863E-05

       100 -7.012848E-07 -1.168297E-06  3.265667E-03

                                INCREMENT    77


 displacements (vx,vy,vz) for set N1 and time  0.2553019E-05

       100 -8.487488E-07 -1.422358E-06  3.177236E-03

                                INCREMENT    78


 displacements (vx,vy,vz) for set N1 and time  0.2586176E-05

       100 -1.040678E-06 -1.701808E-06  3.084199E-03

                                INCREMENT    79


 displacements (vx,vy,vz) for set N1 and time  0.2619332E-05

       100 -1.299691E-06 -2.004724E-06  2.990638E-03

                                INCREMENT    80


 displacements (vx,vy,vz) for set N1 and time  0.2652488E-05

       100 -1.641150E-06 -2.327428E-06  2.900509E-03

                                INCREMENT    81


 displacements (vx,vy,vz) for set N1 and time  0.2685644E-05

       100 -2.065374E-06 -2.661363E-06  2.816898E-03

                                INCREMENT    82


 displacements (vx,vy,vz) for set N1 and time  0.2718800E-05

       100 -2.555742E-06 -2.989321E-06  2.741580E-03

                                INCREMENT    83


 displacements (vx,vy,vz) for set N1 and time  0.2751956E-05

       100 -3.084970E-06 -3.282582E-06  2.674951E-03

                                INCREMENT    84


 displacements (vx,vy,vz) for set N1 and time  0.2785112E-05

       100 -3.627697E-06 -3.500837E-06  2.616264E-03

                                INCREMENT    85


 displacements (vx,vy,vz) for set N1 and time  0.2818268E-05

       100 -4.173504E-06 -3.596165E-06  2.564024E-03

                                INCREMENT    86


 displacements (vx,vy,vz) for set N1 and time  0.2851424E-05

       100 -4.732977E-06 -3.520863E-06  2.516395E-03

                                INCREMENT    87


 displacements (vx,vy,vz) for set N1 and time  0.2884580E-05

       100 -5.331912E-06 -3.236960E-06  2.471552E-03

                                INCREMENT    88


 displacements (vx,vy,vz) for set N1 and time  0.2917737E-05

       100 -5.994598E-06 -2.723640E-06  2.427925E-03

                                INCREMENT    89


 displacements (vx,vy,vz) for set N1 and time  0.2950893E-05

       100 -6.723685E-06 -1.978515E-06  2.384365E-03

                                INCREMENT    90


 displacements (vx,vy,vz) for set N1 and time  0.2984049E-05

       100 -7.487732E-06 -1.010254E-06  2.340202E-03

                                INCREMENT    91


 displacements (vx,vy,vz) for set N1 and time  0.3017205E-05

       100 -8.225461E-06  1.765563E-07  2.295178E-03

                                INCREMENT    92


 displacements (vx,vy,vz) for set N1 and time  0.3050361E-05

       100 -8.867939E-06  1.599464E-06  2.249244E-03

                                INCREMENT    93


 displacements (vx,vy,vz) for set N1 and time  0.3083517E-05

       100 -9.369796E-06  3.311353E-06  2.202259E-03

                                INCREMENT    94


 displacements (vx,vy,vz) for set N1 and time  0.3116673E-05

       100 -9.733300E-06  5.401042E-06  2.153699E-03

                                INCREMENT    95


 displacements (vx,vy,vz) for set N1 and time  0.3149829E-05

       100 -1.000964E-05  7.977208E-06  2.102537E-03

                                INCREMENT    96


 displacements (vx,vy,vz) for set N1 and time  0.3182985E-05

       100 -1.027117E-05  1.113819E-05  2.047399E-03

                                INCREMENT    97


 displacements (vx,vy,vz) for set N1 and time  0.3216141E-05

       100 -1.056338E-05  1.493738E-05  1.987018E-03

                                INCREMENT    98


 displacements (vx,vy,vz) for set N1 and time  0.3249298E-05

       100 -1.085843E-05  1.935844E-05  1.920824E-03

                                INCREMENT    99


 displacements (vx,vy,vz) for set N1 and time  0.3282454E-05

       100 -1.103598E-05  2.431305E-05  1.849454E-03

                                INCREMENT   100


 displacements (vx,vy,vz) for set N1 and time  0.3315610E-05

       100 -1.090750E-05  2.966692E-05  1.774908E-03

                                INCREMENT   101


 displacements (vx,vy,vz) for set N1 and time  0.3348766E-05

       100 -1.028059E-05  3.528727E-05  1.700234E-03

                                INCREMENT   102


 displacements (vx,vy,vz) for set N1 and time  0.3381922E-05

       100 -9.038413E-06  4.109440E-05  1.628795E-03

                                INCREMENT   103


 displacements (vx,vy,vz) for set N1 and time  0.3415078E-05

       100 -7.197746E-06  4.709384E-05  1.563361E-03

                                INCREMENT   104


 displacements (vx,vy,vz) for set N1 and time  0.3448234E-05

       100 -4.914544E-06  5.337061E-05  1.505317E-03

                                INCREMENT   105


 displacements (vx,vy,vz) for set N1 and time  0.3481390E-05

       100 -2.428118E-06  6.004117E-05  1.454288E-03

                                INCREMENT   106


 displacements (vx,vy,vz) for set N1 and time  0.3514546E-05

       100  3.586654E-08  6.717745E-05  1.408274E-03

                                INCREMENT   107


 displacements (vx,vy,vz) for set N1 and time  0.3547702E-05

       100  2.361069E-06  7.473393E-05  1.364226E-03

                                INCREMENT   108


 displacements (vx,vy,vz) for set N1 and time  0.3580859E-05

       100  4.589276E-06  8.251256E-05  1.318861E-03

                                INCREMENT   109


 displacements (vx,vy,vz) for set N1 and time  0.3614015E-05

       100  6.896374E-06  9.018980E-05  1.269459E-03

                                INCREMENT   110


 displacements (vx,vy,vz) for set N1 and time  0.3647171E-05

       100  9.503701E-06  9.740519E-05  1.214440E-03

                                INCREMENT   111


 displacements (vx,vy,vz) for set N1 and time  0.3680327E-05

       100  1.256539E-05  1.038827E-04  1.153628E-03

                                INCREMENT   112


 displacements (vx,vy,vz) for set N1 and time  0.3713483E-05

       100  1.608627E-05  1.095362E-04  1.088207E-03

                                INCREMENT   113


 displacements (vx,vy,vz) for set N1 and time  0.3746639E-05

       100  1.991176E-05  1.145101E-04  1.020416E-03

                                INCREMENT   114


 displacements (vx,vy,vz) for set N1 and time  0.3779795E-05

       100  2.379642E-05  1.191274E-04  9.530739E-04

                                INCREMENT   115


 displacements (vx,vy,vz) for set N1 and time  0.3812951E-05

       100  2.751768E-05  1.237561E-04  8.889844E-04

                                INCREMENT   116


 displacements (vx,vy,vz) for set N1 and time  0.3846107E-05

       100  3.097678E-05  1.286414E-04  8.303260E-04

                                INCREMENT   117


 displacements (vx,vy,vz) for set N1 and time  0.3879263E-05

       100  3.423343E-05  1.337731E-04  7.781268E-04

                                INCREMENT   118


 displacements (vx,vy,vz) for set N1 and time  0.3912419E-05

       100  3.745390E-05  1.388500E-04  7.319686E-04

                                INCREMENT   119


 displacements (vx,vy,vz) for set N1 and time  0.3945576E-05

       100  4.079699E-05  1.433637E-04  6.900364E-04

                                INCREMENT   120


 displacements (vx,vy,vz) for set N1 and time  0.3978732E-05

       100  4.429713E-05  1.467775E-04  6.495537E-04

                                INCREMENT   121


 displacements (vx,vy,vz) for set N1 and time  0.4011888E-05

       100  4.780808E-05  1.487269E-04  6.075212E-04

                                INCREMENT   122


 displacements (vx,vy,vz) for set N1 and time  0.4045044E-05

       100  5.104214E-05  1.491592E-04  5.615567E-04

                                INCREMENT   123


 displacements (vx,vy,vz) for set N1 and time  0.4078200E-05

       100  5.369100E-05  1.483449E-04  5.105792E-04

                                INCREMENT   124


 displacements (vx,vy,vz) for set N1 and time  0.4111356E-05

       100  5.557040E-05  1.467547E-04  4.551231E-04

                                INCREMENT   125


 displacements (vx,vy,vz) for set N1 and time  0.4144512E-05

       100  5.671582E-05  1.448523E-04  3.971968E-04

                                INCREMENT   126


 displacements (vx,vy,vz) for set N1 and time  0.4177668E-05

       100  5.737825E-05  1.428960E-04  3.397654E-04

                                INCREMENT   127


 displacements (vx,vy,vz) for set N1 and time  0.4210824E-05

       100  5.791912E-05  1.408445E-04  2.860559E-04

                                INCREMENT   128


 displacements (vx,vy,vz) for set N1 and time  0.4243980E-05

       100  5.865505E-05  1.384140E-04  2.389211E-04

                                INCREMENT   129


 displacements (vx,vy,vz) for set N1 and time  0.4277137E-05

       100  5.972966E-05  1.352670E-04  2.004314E-04

                                INCREMENT   130


 displacements (vx,vy,vz) for set N1 and time  0.4310293E-05

       100  6.107654E-05  1.312470E-04  1.717514E-04

                                INCREMENT   131


 displacements (vx,vy,vz) for set N1 and time  0.4343449E-05

       100  6.249011E-05  1.265438E-04  1.532448E-04

                                INCREMENT   132


 displacements (vx,vy,vz) for set N1 and time  0.4376605E-05

       100  6.376421E-05  1.217027E-04  1.446966E-04

                                INCREMENT   133


 displacements (vx,vy,vz) for set N1 and time  0.4409761E-05

       100  6.482166E-05  1.174573E-04  1.455537E-04

                                INCREMENT   134


 displacements (vx,vy,vz) for set N1 and time  0.4442917E-05

       100  6.576215E-05  1.144488E-04  1.551305E-04

                                INCREMENT   135


 displacements (vx,vy,vz) for set N1 and time  0.4476073E-05

       100  6.679956E-05  1.129548E-04  1.727754E-04

                                INCREMENT   136


 displacements (vx,vy,vz) for set N1 and time  0.4509229E-05

       100  6.812073E-05  1.127497E-04  1.980008E-04

                                INCREMENT   137


 displacements (vx,vy,vz) for set N1 and time  0.4542385E-05

       100  6.974380E-05  1.131666E-04  2.305629E-04

                                INCREMENT   138


 displacements (vx,vy,vz) for set N1 and time  0.4575541E-05

       100  7.145936E-05  1.133408E-04  2.704507E-04

                                INCREMENT   139


 displacements (vx,vy,vz) for set N1 and time  0.4608698E-05

       100  7.289793E-05  1.125289E-04  3.177513E-04

                                INCREMENT   140


 displacements (vx,vy,vz) for set N1 and time  0.4641854E-05

       100  7.370137E-05  1.103659E-04  3.724073E-04

                                INCREMENT   141


 displacements (vx,vy,vz) for set N1 and time  0.4675010E-05

       100  7.371764E-05  1.069485E-04  4.339522E-04

                                INCREMENT   142


 displacements (vx,vy,vz) for set N1 and time  0.4708166E-05

       100  7.311924E-05  1.027161E-04  5.013545E-04

                                INCREMENT   143


 displacements (vx,vy,vz) for set N1 and time  0.4741322E-05

       100  7.237656E-05  9.819726E-05  5.730857E-04

                                INCREMENT   144


 displacements (vx,vy,vz) for set N1 and time  0.4774478E-05

       100  7.208602E-05  9.374967E-05  6.474348E-04

                                INCREMENT   145


 displacements (vx,vy,vz) for set N1 and time  0.4807634E-05

       100  7.272386E-05  8.942353E-05  7.229749E-04

                                INCREMENT   146


 displacements (vx,vy,vz) for set N1 and time  0.4840790E-05

       100  7.443639E-05  8.501090E-05  7.989863E-04

                                INCREMENT   147


 displacements (vx,vy,vz) for set N1 and time  0.4873946E-05

       100  7.696356E-05  8.024707E-05  8.756308E-04

                                INCREMENT   148


 displacements (vx,vy,vz) for set N1 and time  0.4907102E-05

       100  7.973295E-05  7.504961E-05  9.537618E-04

                                INCREMENT   149


 displacements (vx,vy,vz) for set N1 and time  0.4940258E-05

       100  8.208319E-05  6.965909E-05  1.034404E-03

                                INCREMENT   150


 displacements (vx,vy,vz) for set N1 and time  0.4973415E-05

       100  8.351777E-05  6.459455E-05  1.118084E-03

                                INCREMENT   151


 displacements (vx,vy,vz) for set N1 and time  0.5000000E-05

       100  8.388463E-05  6.115015E-05  1.187099E-03
