
                        S T E P       1


                                INCREMENT     1


 displacements (vx,vy,vz) for set NALL and time  0.1000000E+01

         1  0.000000E+00  0.000000E+00  0.000000E+00
         2 -4.432439E-03  0.000000E+00  0.000000E+00
         3 -4.432439E-03 -4.432439E-03  0.000000E+00
         4 -2.021021E-18 -4.432439E-03  0.000000E+00
         5  5.014619E-10  5.014632E-10  8.462491E-02
         6 -4.432439E-03  5.014632E-10  8.462491E-02
         7 -4.432439E-03 -4.432439E-03  8.462491E-02
         8  5.014618E-10 -4.432439E-03  8.462491E-02
         9 -1.108110E-03  8.069561E-15  0.000000E+00
        10 -2.216219E-03  3.837873E-14  0.000000E+00
        11 -3.324329E-03  8.089157E-15  0.000000E+00
        12 -4.432439E-03 -1.108110E-03  0.000000E+00
        13 -4.432439E-03 -2.216219E-03  0.000000E+00
        14 -4.432439E-03 -3.324329E-03  0.000000E+00
        15 -3.324329E-03 -4.432439E-03  0.000000E+00
        16 -2.216219E-03 -4.432439E-03  0.000000E+00
        17 -1.108110E-03 -4.432439E-03  0.000000E+00
        18  8.059752E-15 -3.324329E-03  0.000000E+00
        19  3.837525E-14 -2.216219E-03  0.000000E+00
        20  8.086954E-15 -1.108110E-03  0.000000E+00
        21 -1.108109E-03  5.031850E-10  8.462491E-02
        22 -2.216219E-03  4.702694E-10  8.462491E-02
        23 -3.324329E-03  5.031850E-10  8.462491E-02
        24 -4.432439E-03 -1.108109E-03  8.462491E-02
        25 -4.432439E-03 -2.216219E-03  8.462491E-02
        26 -4.432439E-03 -3.324329E-03  8.462491E-02
        27 -3.324329E-03 -4.432439E-03  8.462491E-02
        28 -2.216219E-03 -4.432439E-03  8.462491E-02
        29 -1.108109E-03 -4.432439E-03  8.462491E-02
        30  5.031836E-10 -3.324329E-03  8.462491E-02
        31  4.702681E-10 -2.216219E-03  8.462491E-02
        32  5.031837E-10 -1.108109E-03  8.462491E-02
        33 -4.432439E-03 -6.305129E-14  5.289057E-03
        34 -4.432439E-03 -1.620533E-13  1.057811E-02
        35 -4.432439E-03 -1.945583E-14  1.586717E-02
        36 -4.432439E-03  1.101237E-13  2.115623E-02
        37 -4.432439E-03  2.602443E-14  2.644528E-02
        38 -4.432439E-03 -7.784123E-13  3.173434E-02
        39 -4.432439E-03 -3.957519E-13  3.702340E-02
        40 -4.432439E-03  7.228291E-13  4.231246E-02
        41 -4.432439E-03  2.760330E-12  4.760151E-02
        42 -4.432439E-03 -6.009651E-12  5.289057E-02
        43 -4.432439E-03 -7.876477E-12  5.817963E-02
        44 -4.432439E-03  1.209959E-12  6.346868E-02
        45 -4.432439E-03  4.662402E-11  6.875774E-02
        46 -4.432439E-03 -4.685226E-11  7.404680E-02
        47 -4.432439E-03 -1.133351E-10  7.933585E-02
        48 -1.133364E-10 -1.133351E-10  7.933585E-02
        49 -4.685338E-11 -4.685218E-11  7.404680E-02
        50  4.662295E-11  4.662400E-11  6.875774E-02
        51  1.209047E-12  1.209957E-12  6.346868E-02
        52 -7.877272E-12 -7.876464E-12  5.817963E-02
        53 -6.010325E-12 -6.009648E-12  5.289057E-02
        54  2.759766E-12  2.760370E-12  4.760151E-02
        55  7.223005E-13  7.228343E-13  4.231246E-02
        56 -3.962028E-13 -3.957335E-13  3.702340E-02
        57 -7.788081E-13 -7.784194E-13  3.173434E-02
        58  2.571209E-14  2.600591E-14  2.644528E-02
        59  1.099247E-13  1.101631E-13  2.115623E-02
        60 -1.960479E-14 -1.944827E-14  1.586717E-02
        61 -1.620994E-13 -1.620393E-13  1.057811E-02
        62 -6.305681E-14 -6.301959E-14  5.289057E-03
        63 -4.432439E-03 -4.432439E-03  5.289057E-03
        64 -4.432439E-03 -4.432439E-03  1.057811E-02
        65 -4.432439E-03 -4.432439E-03  1.586717E-02
        66 -4.432439E-03 -4.432439E-03  2.115623E-02
        67 -4.432439E-03 -4.432439E-03  2.644528E-02
        68 -4.432439E-03 -4.432439E-03  3.173434E-02
        69 -4.432439E-03 -4.432439E-03  3.702340E-02
        70 -4.432439E-03 -4.432439E-03  4.231246E-02
        71 -4.432439E-03 -4.432439E-03  4.760151E-02
        72 -4.432439E-03 -4.432439E-03  5.289057E-02
        73 -4.432439E-03 -4.432439E-03  5.817963E-02
        74 -4.432439E-03 -4.432439E-03  6.346868E-02
        75 -4.432439E-03 -4.432439E-03  6.875774E-02
        76 -4.432439E-03 -4.432439E-03  7.404680E-02
        77 -4.432439E-03 -4.432439E-03  7.933585E-02
        78 -6.305143E-14 -4.432439E-03  5.289057E-03
        79 -1.621102E-13 -4.432439E-03  1.057811E-02
        80 -1.960028E-14 -4.432439E-03  1.586717E-02
        81  1.099023E-13 -4.432439E-03  2.115623E-02
        82  2.571969E-14 -4.432439E-03  2.644528E-02
        83 -7.787624E-13 -4.432439E-03  3.173434E-02
        84 -3.961940E-13 -4.432439E-03  3.702340E-02
        85  7.222739E-13 -4.432439E-03  4.231246E-02
        86  2.759752E-12 -4.432439E-03  4.760151E-02
        87 -6.010349E-12 -4.432439E-03  5.289057E-02
        88 -7.877275E-12 -4.432439E-03  5.817963E-02
        89  1.209074E-12 -4.432439E-03  6.346868E-02
        90  4.662289E-11 -4.432439E-03  6.875774E-02
        91 -4.685339E-11 -4.432439E-03  7.404680E-02
        92 -1.133363E-10 -4.432439E-03  7.933585E-02
        93 -2.216219E-03 -1.108110E-03  0.000000E+00
        94 -1.108110E-03 -2.216219E-03  0.000000E+00
        95 -2.216219E-03 -2.216219E-03  0.000000E+00
        96 -3.324329E-03 -2.216219E-03  0.000000E+00
        97 -2.216219E-03 -3.324329E-03  0.000000E+00
        98 -2.216219E-03 -1.108110E-03  8.462491E-02
        99 -1.108110E-03 -2.216219E-03  8.462491E-02
       100 -2.216219E-03 -2.216219E-03  8.462491E-02
       101 -3.324329E-03 -2.216219E-03  8.462491E-02
       102 -2.216219E-03 -3.324329E-03  8.462491E-02
       103 -2.216219E-03 -5.650393E-14  5.289057E-03
       104 -1.108110E-03 -1.515175E-13  1.057811E-02
       105 -2.216219E-03 -1.700155E-13  1.057811E-02
       106 -3.324329E-03 -1.515361E-13  1.057811E-02
       107 -2.216219E-03 -8.741635E-14  1.586717E-02
       108 -1.108110E-03  1.601972E-13  2.115623E-02
       109 -2.216219E-03  2.624242E-13  2.115623E-02
       110 -3.324329E-03  1.601916E-13  2.115623E-02
       111 -2.216219E-03  9.050922E-14  2.644528E-02
       112 -1.108110E-03 -6.458901E-13  3.173434E-02
       113 -2.216219E-03 -6.037253E-13  3.173434E-02
       114 -3.324329E-03 -6.459082E-13  3.173434E-02
       115 -2.216219E-03 -9.306675E-13  3.702340E-02
       116 -1.108110E-03  1.348080E-12  4.231246E-02
       117 -2.216219E-03  2.105057E-12  4.231246E-02
       118 -3.324329E-03  1.348093E-12  4.231246E-02
       119 -2.216219E-03  2.619201E-12  4.760151E-02
       120 -1.108110E-03 -4.240972E-12  5.289057E-02
       121 -2.216219E-03 -2.485081E-12  5.289057E-02
       122 -3.324329E-03 -4.240959E-12  5.289057E-02
       123 -2.216219E-03 -1.220751E-11  5.817963E-02
       124 -1.108110E-03  8.713567E-12  6.346868E-02
       125 -2.216219E-03  1.556802E-11  6.346868E-02
       126 -3.324329E-03  8.713555E-12  6.346868E-02
       127 -2.216219E-03  3.887696E-11  6.875774E-02
       128 -1.108110E-03 -1.449886E-11  7.404680E-02
       129 -2.216219E-03  2.183177E-11  7.404680E-02
       130 -3.324329E-03 -1.449891E-11  7.404680E-02
       131 -2.216219E-03 -2.065674E-10  7.933585E-02
       132 -4.432439E-03 -2.216219E-03  5.289057E-03
       133 -4.432439E-03 -1.108110E-03  1.057811E-02
       134 -4.432439E-03 -2.216219E-03  1.057811E-02
       135 -4.432439E-03 -3.324329E-03  1.057811E-02
       136 -4.432439E-03 -2.216219E-03  1.586717E-02
       137 -4.432439E-03 -1.108110E-03  2.115623E-02
       138 -4.432439E-03 -2.216219E-03  2.115623E-02
       139 -4.432439E-03 -3.324329E-03  2.115623E-02
       140 -4.432439E-03 -2.216219E-03  2.644528E-02
       141 -4.432439E-03 -1.108110E-03  3.173434E-02
       142 -4.432439E-03 -2.216219E-03  3.173434E-02
       143 -4.432439E-03 -3.324329E-03  3.173434E-02
       144 -4.432439E-03 -2.216219E-03  3.702340E-02
       145 -4.432439E-03 -1.108110E-03  4.231246E-02
       146 -4.432439E-03 -2.216219E-03  4.231246E-02
       147 -4.432439E-03 -3.324329E-03  4.231246E-02
       148 -4.432439E-03 -2.216219E-03  4.760151E-02
       149 -4.432439E-03 -1.108110E-03  5.289057E-02
       150 -4.432439E-03 -2.216219E-03  5.289057E-02
       151 -4.432439E-03 -3.324329E-03  5.289057E-02
       152 -4.432439E-03 -2.216219E-03  5.817963E-02
       153 -4.432439E-03 -1.108110E-03  6.346868E-02
       154 -4.432439E-03 -2.216219E-03  6.346868E-02
       155 -4.432439E-03 -3.324329E-03  6.346868E-02
       156 -4.432439E-03 -2.216219E-03  6.875774E-02
       157 -4.432439E-03 -1.108110E-03  7.404680E-02
       158 -4.432439E-03 -2.216219E-03  7.404680E-02
       159 -4.432439E-03 -3.324329E-03  7.404680E-02
       160 -4.432438E-03 -2.216219E-03  7.933585E-02
       161 -2.216219E-03 -4.432439E-03  5.289057E-03
       162 -3.324329E-03 -4.432439E-03  1.057811E-02
       163 -2.216219E-03 -4.432439E-03  1.057811E-02
       164 -1.108110E-03 -4.432439E-03  1.057811E-02
       165 -2.216219E-03 -4.432439E-03  1.586717E-02
       166 -3.324329E-03 -4.432439E-03  2.115623E-02
       167 -2.216219E-03 -4.432439E-03  2.115623E-02
       168 -1.108110E-03 -4.432439E-03  2.115623E-02
       169 -2.216219E-03 -4.432439E-03  2.644528E-02
       170 -3.324329E-03 -4.432439E-03  3.173434E-02
       171 -2.216219E-03 -4.432439E-03  3.173434E-02
       172 -1.108110E-03 -4.432439E-03  3.173434E-02
       173 -2.216219E-03 -4.432439E-03  3.702340E-02
       174 -3.324329E-03 -4.432439E-03  4.231246E-02
       175 -2.216219E-03 -4.432439E-03  4.231246E-02
       176 -1.108110E-03 -4.432439E-03  4.231246E-02
       177 -2.216219E-03 -4.432439E-03  4.760151E-02
       178 -3.324329E-03 -4.432439E-03  5.289057E-02
       179 -2.216219E-03 -4.432439E-03  5.289057E-02
       180 -1.108110E-03 -4.432439E-03  5.289057E-02
       181 -2.216219E-03 -4.432439E-03  5.817963E-02
       182 -3.324329E-03 -4.432439E-03  6.346868E-02
       183 -2.216219E-03 -4.432439E-03  6.346868E-02
       184 -1.108110E-03 -4.432439E-03  6.346868E-02
       185 -2.216219E-03 -4.432439E-03  6.875774E-02
       186 -3.324329E-03 -4.432439E-03  7.404680E-02
       187 -2.216219E-03 -4.432439E-03  7.404680E-02
       188 -1.108110E-03 -4.432439E-03  7.404680E-02
       189 -2.216219E-03 -4.432438E-03  7.933585E-02
       190 -5.652422E-14 -2.216219E-03  5.289057E-03
       191 -1.515986E-13 -3.324329E-03  1.057811E-02
       192 -1.700955E-13 -2.216219E-03  1.057811E-02
       193 -1.515903E-13 -1.108110E-03  1.057811E-02
       194 -8.753951E-14 -2.216219E-03  1.586717E-02
       195  1.599739E-13 -3.324329E-03  2.115623E-02
       196  2.622236E-13 -2.216219E-03  2.115623E-02
       197  1.600018E-13 -1.108110E-03  2.115623E-02
       198  9.020947E-14 -2.216219E-03  2.644528E-02
       199 -6.462845E-13 -3.324329E-03  3.173434E-02
       200 -6.041316E-13 -2.216219E-03  3.173434E-02
       201 -6.463211E-13 -1.108110E-03  3.173434E-02
       202 -9.311013E-13 -2.216219E-03  3.702340E-02
       203  1.347563E-12 -3.324329E-03  4.231246E-02
       204  2.104557E-12 -2.216219E-03  4.231246E-02
       205  1.347582E-12 -1.108110E-03  4.231246E-02
       206  2.618612E-12 -2.216219E-03  4.760151E-02
       207 -4.241649E-12 -3.324329E-03  5.289057E-02
       208 -2.485769E-12 -2.216219E-03  5.289057E-02
       209 -4.241658E-12 -1.108110E-03  5.289057E-02
       210 -1.220832E-11 -2.216219E-03  5.817963E-02
       211  8.712658E-12 -3.324329E-03  6.346868E-02
       212  1.556709E-11 -2.216219E-03  6.346868E-02
       213  8.712637E-12 -1.108110E-03  6.346868E-02
       214  3.887590E-11 -2.216219E-03  6.875774E-02
       215 -1.450004E-11 -3.324329E-03  7.404680E-02
       216  2.183061E-11 -2.216219E-03  7.404680E-02
       217 -1.450006E-11 -1.108110E-03  7.404680E-02
       218 -2.065686E-10 -2.216219E-03  7.933585E-02
       219 -2.216219E-03 -2.216219E-03  5.289057E-03
       220 -2.216219E-03 -1.108110E-03  1.057811E-02
       221 -1.108110E-03 -2.216219E-03  1.057811E-02
       222 -2.216219E-03 -2.216219E-03  1.057811E-02
       223 -3.324329E-03 -2.216219E-03  1.057811E-02
       224 -2.216219E-03 -3.324329E-03  1.057811E-02
       225 -2.216219E-03 -2.216219E-03  1.586717E-02
       226 -2.216219E-03 -1.108110E-03  2.115623E-02
       227 -1.108110E-03 -2.216219E-03  2.115623E-02
       228 -2.216219E-03 -2.216219E-03  2.115623E-02
       229 -3.324329E-03 -2.216219E-03  2.115623E-02
       230 -2.216219E-03 -3.324329E-03  2.115623E-02
       231 -2.216219E-03 -2.216219E-03  2.644528E-02
       232 -2.216219E-03 -1.108110E-03  3.173434E-02
       233 -1.108110E-03 -2.216219E-03  3.173434E-02
       234 -2.216219E-03 -2.216219E-03  3.173434E-02
       235 -3.324329E-03 -2.216219E-03  3.173434E-02
       236 -2.216219E-03 -3.324329E-03  3.173434E-02
       237 -2.216219E-03 -2.216219E-03  3.702340E-02
       238 -2.216219E-03 -1.108110E-03  4.231246E-02
       239 -1.108110E-03 -2.216219E-03  4.231246E-02
       240 -2.216219E-03 -2.216219E-03  4.231246E-02
       241 -3.324329E-03 -2.216219E-03  4.231246E-02
       242 -2.216219E-03 -3.324329E-03  4.231246E-02
       243 -2.216219E-03 -2.216219E-03  4.760151E-02
       244 -2.216219E-03 -1.108110E-03  5.289057E-02
       245 -1.108110E-03 -2.216219E-03  5.289057E-02
       246 -2.216219E-03 -2.216219E-03  5.289057E-02
       247 -3.324329E-03 -2.216219E-03  5.289057E-02
       248 -2.216219E-03 -3.324329E-03  5.289057E-02
       249 -2.216219E-03 -2.216219E-03  5.817963E-02
       250 -2.216219E-03 -1.108110E-03  6.346868E-02
       251 -1.108110E-03 -2.216219E-03  6.346868E-02
       252 -2.216219E-03 -2.216219E-03  6.346868E-02
       253 -3.324329E-03 -2.216219E-03  6.346868E-02
       254 -2.216219E-03 -3.324329E-03  6.346868E-02
       255 -2.216219E-03 -2.216219E-03  6.875774E-02
       256 -2.216219E-03 -1.108110E-03  7.404680E-02
       257 -1.108110E-03 -2.216219E-03  7.404680E-02
       258 -2.216219E-03 -2.216219E-03  7.404680E-02
       259 -3.324329E-03 -2.216219E-03  7.404680E-02
       260 -2.216219E-03 -3.324329E-03  7.404680E-02
       261 -2.216219E-03 -2.216219E-03  7.933585E-02

 stresses (elem, integ.pnt.,sxx,syy,szz,sxy,sxz,syz) for set EALL and time  0.1000000E+01

         1   1  1.750717E-04  1.750717E-04  9.725474E+02 -9.022105E-10  4.939179E-09  4.939828E-09
         1   2  1.750551E-04  1.750661E-04  9.725474E+02  9.116505E-11  5.052621E-09 -1.333287E-10
         1   3  1.750660E-04  1.750551E-04  9.725474E+02  9.099022E-11 -1.330560E-10  5.054155E-09
         1   4  1.750657E-04  1.750657E-04  9.725474E+02 -9.021823E-10  8.784785E-10  8.787368E-10
         1   5  1.750415E-04  1.750415E-04  9.725474E+02  5.337672E-09  3.487899E-09  3.486866E-09
         1   6  1.750909E-04  1.750701E-04  9.725474E+02  2.534073E-09 -7.256570E-10  1.040445E-09
         1   7  1.750701E-04  1.750909E-04  9.725474E+02  2.534270E-09  1.040521E-09 -7.249706E-10
         1   8  1.750756E-04  1.750756E-04  9.725474E+02  2.898905E-09 -2.233978E-09 -2.233689E-09
         2   1  1.750551E-04  1.750660E-04  9.725474E+02 -9.095058E-11 -5.054447E-09 -1.341175E-10
         2   2  1.750716E-04  1.750716E-04  9.725474E+02  8.986593E-10 -4.938490E-09  4.938323E-09
         2   3  1.750657E-04  1.750657E-04  9.725474E+02  9.022387E-10 -8.782363E-10  8.789756E-10
         2   4  1.750660E-04  1.750551E-04  9.725474E+02 -9.139009E-11  1.347879E-10  5.055305E-09
         2   5  1.750910E-04  1.750702E-04  9.725474E+02 -2.534418E-09  7.258468E-10  1.040367E-09
         2   6  1.750415E-04  1.750415E-04  9.725474E+02 -5.337672E-09 -3.487503E-09  3.488487E-09
         2   7  1.750756E-04  1.750756E-04  9.725474E+02 -2.895354E-09  2.233539E-09 -2.234001E-09
         2   8  1.750702E-04  1.750910E-04  9.725474E+02 -2.533002E-09 -1.040441E-09 -7.257452E-10
         3   1  1.750660E-04  1.750551E-04  9.725474E+02 -9.136366E-11 -1.330206E-10 -5.053480E-09
         3   2  1.750656E-04  1.750656E-04  9.725474E+02  9.023796E-10  8.780403E-10 -8.782505E-10
         3   3  1.750716E-04  1.750716E-04  9.725474E+02  9.022387E-10  4.938387E-09 -4.939291E-09
         3   4  1.750551E-04  1.750660E-04  9.725474E+02 -9.183883E-11  5.053405E-09  1.325614E-10
         3   5  1.750702E-04  1.750910E-04  9.725474E+02 -2.533692E-09  1.040024E-09  7.259740E-10
         3   6  1.750756E-04  1.750756E-04  9.725474E+02 -2.895298E-09 -2.234269E-09  2.233468E-09
         3   7  1.750415E-04  1.750415E-04  9.725474E+02 -5.337672E-09  3.488126E-09 -3.487869E-09
         3   8  1.750910E-04  1.750702E-04  9.725474E+02 -2.531754E-09 -7.262089E-10 -1.040497E-09
         4   1  1.750656E-04  1.750656E-04  9.725474E+02 -9.022387E-10 -8.781074E-10 -8.785669E-10
         4   2  1.750660E-04  1.750551E-04  9.725474E+02  9.068768E-11  1.337775E-10 -5.052620E-09
         4   3  1.750551E-04  1.750660E-04  9.725474E+02  9.143544E-11 -5.052959E-09  1.320700E-10
         4   4  1.750716E-04  1.750716E-04  9.725474E+02 -8.986311E-10 -4.940922E-09 -4.941035E-09
         4   5  1.750756E-04  1.750756E-04  9.725474E+02  2.895298E-09  2.232929E-09  2.232540E-09
         4   6  1.750701E-04  1.750909E-04  9.725474E+02  2.534453E-09 -1.039983E-09  7.256284E-10
         4   7  1.750910E-04  1.750702E-04  9.725474E+02  2.535003E-09  7.265657E-10 -1.040448E-09
         4   8  1.750415E-04  1.750415E-04  9.725474E+02  5.334008E-09 -3.486694E-09 -3.486697E-09
         5   1  1.750782E-04  1.750782E-04  9.725474E+02 -3.688942E-09 -9.633907E-09 -9.634375E-09
         5   2  1.750757E-04  1.750676E-04  9.725474E+02 -3.070577E-09 -1.248896E-08 -2.676155E-09
         5   3  1.750675E-04  1.750757E-04  9.725474E+02 -3.067772E-09 -2.676248E-09 -1.248976E-08
         5   4  1.750604E-04  1.750604E-04  9.725474E+02 -3.877608E-10 -4.212826E-09 -4.212945E-09
         5   5  1.751353E-04  1.751353E-04  9.725474E+02 -9.936040E-09 -1.447829E-08 -1.447813E-08
         5   6  1.750105E-04  1.750507E-04  9.725474E+02 -5.195532E-09  1.160052E-08 -3.365079E-09
         5   7  1.750507E-04  1.750105E-04  9.725474E+02 -5.196159E-09 -3.364721E-09  1.160161E-08
         5   8  1.750469E-04  1.750469E-04  9.725474E+02 -6.548051E-09  1.348107E-08  1.348212E-08
         6   1  1.750757E-04  1.750676E-04  9.725474E+02  3.068519E-09  1.248957E-08 -2.675948E-09
         6   2  1.750782E-04  1.750782E-04  9.725474E+02  3.688942E-09  9.632281E-09 -9.632027E-09
         6   3  1.750604E-04  1.750604E-04  9.725474E+02  3.840687E-10  4.213116E-09 -4.212409E-09
         6   4  1.750675E-04  1.750757E-04  9.725474E+02  3.066095E-09  2.675288E-09 -1.248973E-08
         6   5  1.750105E-04  1.750507E-04  9.725474E+02  5.194869E-09 -1.160023E-08 -3.364487E-09
         6   6  1.751353E-04  1.751353E-04  9.725474E+02  9.936068E-09  1.447789E-08 -1.448068E-08
         6   7  1.750469E-04  1.750469E-04  9.725474E+02  6.544303E-09 -1.348151E-08  1.348197E-08
         6   8  1.750507E-04  1.750105E-04  9.725474E+02  5.193932E-09  3.364647E-09  1.160224E-08
         7   1  1.750676E-04  1.750757E-04  9.725474E+02  3.069985E-09 -2.676045E-09  1.248831E-08
         7   2  1.750604E-04  1.750604E-04  9.725474E+02  3.840969E-10 -4.212527E-09  4.213374E-09
         7   3  1.750782E-04  1.750782E-04  9.725474E+02  3.685278E-09 -9.632409E-09  9.633880E-09
         7   4  1.750757E-04  1.750676E-04  9.725474E+02  3.069167E-09 -1.248903E-08  2.675569E-09
         7   5  1.750507E-04  1.750105E-04  9.725474E+02  5.195151E-09 -3.365347E-09 -1.160164E-08
         7   6  1.750469E-04  1.750469E-04  9.725474E+02  6.547966E-09  1.348189E-08 -1.348274E-08
         7   7  1.751354E-04  1.751354E-04  9.725474E+02  9.936068E-09 -1.447857E-08  1.447693E-08
         7   8  1.750106E-04  1.750507E-04  9.725474E+02  5.194094E-09  1.160171E-08  3.366339E-09
         8   1  1.750604E-04  1.750604E-04  9.725474E+02 -3.876763E-10  4.212664E-09  4.212878E-09
         8   2  1.750675E-04  1.750757E-04  9.725474E+02 -3.068096E-09  2.675923E-09  1.248744E-08
         8   3  1.750757E-04  1.750675E-04  9.725474E+02 -3.066264E-09  1.248838E-08  2.675894E-09
         8   4  1.750782E-04  1.750782E-04  9.725474E+02 -3.688914E-09  9.634170E-09  9.634704E-09
         8   5  1.750469E-04  1.750469E-04  9.725474E+02 -6.548051E-09 -1.348101E-08 -1.348218E-08
         8   6  1.750507E-04  1.750105E-04  9.725474E+02 -5.195940E-09  3.364601E-09 -1.160122E-08
         8   7  1.750105E-04  1.750507E-04  9.725474E+02 -5.195581E-09 -1.160268E-08  3.364051E-09
         8   8  1.751354E-04  1.751354E-04  9.725474E+02 -9.939732E-09  1.447596E-08  1.447601E-08
         9   1  1.750177E-04  1.750177E-04  9.725474E+02  3.395402E-09  3.056746E-08  3.056688E-08
         9   2  1.750518E-04  1.750690E-04  9.725474E+02  3.546519E-09  3.033230E-08  2.741982E-09
         9   3  1.750690E-04  1.750518E-04  9.725474E+02  3.545709E-09  2.739563E-09  3.033163E-08
         9   4  1.750762E-04  1.750762E-04  9.725474E+02 -1.413447E-10  6.459708E-09  6.459255E-09
         9   5  1.749136E-04  1.749136E-04  9.725474E+02  3.836735E-08  4.041032E-08  4.041094E-08
         9   6  1.751865E-04  1.750983E-04  9.725474E+02  2.466929E-08 -5.297966E-08  3.274727E-08
         9   7  1.750983E-04  1.751865E-04  9.725474E+02  2.466964E-08  3.274604E-08 -5.298081E-08
         9   8  1.751142E-04  1.751142E-04  9.725474E+02  2.145207E-08 -4.263054E-08 -4.263193E-08
        10   1  1.750518E-04  1.750690E-04  9.725474E+02 -3.546893E-09 -3.033095E-08  2.739967E-09
        10   2  1.750177E-04  1.750177E-04  9.725474E+02 -3.395430E-09 -3.056947E-08  3.056723E-08
        10   3  1.750762E-04  1.750762E-04  9.725474E+02  1.413729E-10 -6.459811E-09  6.459793E-09
        10   4  1.750690E-04  1.750518E-04  9.725474E+02 -3.545970E-09 -2.742646E-09  3.033084E-08
        10   5  1.751865E-04  1.750983E-04  9.725474E+02 -2.466901E-08  5.298006E-08  3.274687E-08
        10   6  1.749136E-04  1.749136E-04  9.725474E+02 -3.836735E-08 -4.041169E-08  4.041249E-08
        10   7  1.751142E-04  1.751142E-04  9.725474E+02 -2.145576E-08  4.263146E-08 -4.263093E-08
        10   8  1.750982E-04  1.751865E-04  9.725474E+02 -2.466895E-08 -3.274665E-08 -5.298010E-08
        11   1  1.750690E-04  1.750518E-04  9.725474E+02 -3.547203E-09  2.740592E-09 -3.033131E-08
        11   2  1.750762E-04  1.750762E-04  9.725474E+02  1.413447E-10  6.459752E-09 -6.459873E-09
        11   3  1.750177E-04  1.750177E-04  9.725474E+02 -3.395317E-09  3.056868E-08 -3.056841E-08
        11   4  1.750518E-04  1.750690E-04  9.725474E+02 -3.545075E-09  3.033140E-08 -2.740992E-09
        11   5  1.750982E-04  1.751865E-04  9.725474E+02 -2.466923E-08  3.274692E-08  5.297992E-08
        11   6  1.751142E-04  1.751142E-04  9.725474E+02 -2.145204E-08 -4.263221E-08  4.262974E-08
        11   7  1.749136E-04  1.749136E-04  9.725474E+02 -3.836738E-08  4.041042E-08 -4.040955E-08
        11   8  1.751865E-04  1.750982E-04  9.725474E+02 -2.466930E-08 -5.298039E-08 -3.274670E-08
        12   1  1.750762E-04  1.750762E-04  9.725474E+02 -1.413729E-10 -6.459377E-09 -6.459793E-09
        12   2  1.750690E-04  1.750518E-04  9.725474E+02  3.547041E-09 -2.741870E-09 -3.032956E-08
        12   3  1.750518E-04  1.750690E-04  9.725474E+02  3.545737E-09 -3.032964E-08 -2.741520E-09
        12   4  1.750177E-04  1.750177E-04  9.725474E+02  3.395373E-09 -3.056845E-08 -3.056871E-08
        12   5  1.751142E-04  1.751142E-04  9.725474E+02  2.145215E-08  4.263376E-08  4.263048E-08
        12   6  1.750982E-04  1.751865E-04  9.725474E+02  2.467002E-08 -3.274831E-08  5.298012E-08
        12   7  1.751865E-04  1.750983E-04  9.725474E+02  2.466943E-08  5.297852E-08 -3.274568E-08
        12   8  1.749136E-04  1.749136E-04  9.725474E+02  3.836366E-08 -4.040990E-08 -4.041026E-08
        13   1  1.751821E-04  1.751821E-04  9.725474E+02 -3.285945E-08 -5.647605E-08 -5.647442E-08
        13   2  1.751195E-04  1.751004E-04  9.725474E+02 -2.311142E-08 -6.517293E-08 -2.733043E-08
        13   3  1.751004E-04  1.751195E-04  9.725474E+02 -2.311120E-08 -2.733049E-08 -6.517095E-08
        13   4  1.750398E-04  1.750398E-04  9.725474E+02 -5.805111E-09 -1.922883E-08 -1.922843E-08
        13   5  1.754731E-04  1.754731E-04  9.725474E+02 -3.468196E-08 -2.006380E-07 -2.006377E-07
        13   6  1.747988E-04  1.749075E-04  9.725474E+02 -3.038711E-08  1.818162E-07 -8.183926E-08
        13   7  1.749075E-04  1.747988E-04  9.725474E+02 -3.038710E-08 -8.183766E-08  1.818173E-07
        13   8  1.750227E-04  1.750227E-04  9.725474E+02 -4.085322E-08  1.673408E-07  1.673417E-07
        14   1  1.751195E-04  1.751004E-04  9.725474E+02  2.311055E-08  6.517188E-08 -2.733092E-08
        14   2  1.751821E-04  1.751821E-04  9.725474E+02  3.285948E-08  5.647627E-08 -5.647650E-08
        14   3  1.750398E-04  1.750398E-04  9.725474E+02  5.805054E-09  1.922774E-08 -1.922903E-08
        14   4  1.751004E-04  1.751195E-04  9.725474E+02  2.311072E-08  2.733136E-08 -6.517140E-08
        14   5  1.747988E-04  1.749075E-04  9.725474E+02  3.038865E-08 -1.818155E-07 -8.183905E-08
        14   6  1.754731E-04  1.754731E-04  9.725474E+02  3.468199E-08  2.006376E-07 -2.006370E-07
        14   7  1.750228E-04  1.750228E-04  9.725474E+02  4.085685E-08 -1.673391E-07  1.673415E-07
        14   8  1.749075E-04  1.747988E-04  9.725474E+02  3.038921E-08  8.183709E-08  1.818170E-07
        15   1  1.751005E-04  1.751195E-04  9.725474E+02  2.311078E-08 -2.733038E-08  6.516846E-08
        15   2  1.750398E-04  1.750398E-04  9.725474E+02  5.805054E-09 -1.922938E-08  1.922781E-08
        15   3  1.751820E-04  1.751820E-04  9.725474E+02  3.286305E-08 -5.647711E-08  5.647543E-08
        15   4  1.751195E-04  1.751004E-04  9.725474E+02  2.311154E-08 -6.517105E-08  2.733082E-08
        15   5  1.749075E-04  1.747988E-04  9.725474E+02  3.038770E-08 -8.183960E-08 -1.818173E-07
        15   6  1.750227E-04  1.750227E-04  9.725474E+02  4.085322E-08  1.673412E-07 -1.673426E-07
        15   7  1.754732E-04  1.754732E-04  9.725474E+02  3.468208E-08 -2.006391E-07  2.006381E-07
        15   8  1.747988E-04  1.749075E-04  9.725474E+02  3.038854E-08  1.818167E-07  8.183755E-08
        16   1  1.750398E-04  1.750398E-04  9.725474E+02 -5.805139E-09  1.922744E-08  1.922663E-08
        16   2  1.751004E-04  1.751195E-04  9.725474E+02 -2.311109E-08  2.733016E-08  6.517018E-08
        16   3  1.751195E-04  1.751004E-04  9.725474E+02 -2.311430E-08  6.517101E-08  2.732923E-08
        16   4  1.751821E-04  1.751821E-04  9.725474E+02 -3.285939E-08  5.647577E-08  5.647417E-08
        16   5  1.750228E-04  1.750228E-04  9.725474E+02 -4.085674E-08 -1.673398E-07 -1.673409E-07
        16   6  1.749075E-04  1.747988E-04  9.725474E+02 -3.038752E-08  8.183593E-08 -1.818162E-07
        16   7  1.747988E-04  1.749075E-04  9.725474E+02 -3.038735E-08 -1.818152E-07  8.183881E-08
        16   8  1.754731E-04  1.754731E-04  9.725474E+02 -3.468216E-08  2.006390E-07  2.006368E-07
        17   1  1.746587E-04  1.746587E-04  9.725474E+02 -1.972713E-08  2.202050E-07  2.202031E-07
        17   2  1.749367E-04  1.750468E-04  9.725474E+02 -7.260285E-09  1.599907E-07  3.315784E-09
        17   3  1.750467E-04  1.749366E-04  9.725474E+02 -7.259457E-09  3.313425E-09  1.599920E-07
        17   4  1.750183E-04  1.750183E-04  9.725474E+02 -1.240736E-08 -3.209661E-09 -3.209237E-09
        17   5  1.742834E-04  1.742834E-04  9.725474E+02  2.632301E-07  5.218150E-07  5.218162E-07
        17   6  1.755355E-04  1.753457E-04  9.725474E+02  2.155339E-07 -6.794298E-07  4.593326E-07
        17   7  1.753457E-04  1.755355E-04  9.725474E+02  2.155332E-07  4.593320E-07 -6.794282E-07
        17   8  1.751576E-04  1.751576E-04  9.725474E+02  1.647390E-07 -4.641940E-07 -4.641931E-07
        18   1  1.749366E-04  1.750468E-04  9.725474E+02  7.258978E-09 -1.599904E-07  3.315523E-09
        18   2  1.746588E-04  1.746588E-04  9.725474E+02  1.971991E-08 -2.202068E-07  2.202051E-07
        18   3  1.750183E-04  1.750183E-04  9.725474E+02  1.240733E-08  3.207940E-09 -3.208275E-09
        18   4  1.750467E-04  1.749366E-04  9.725474E+02  7.259281E-09 -3.316091E-09  1.599907E-07
        18   5  1.755355E-04  1.753457E-04  9.725474E+02 -2.155311E-07  6.794307E-07  4.593287E-07
        18   6  1.742834E-04  1.742834E-04  9.725474E+02 -2.632338E-07 -5.218125E-07  5.218145E-07
        18   7  1.751576E-04  1.751576E-04  9.725474E+02 -1.647426E-07  4.641955E-07 -4.641961E-07
        18   8  1.753457E-04  1.755355E-04  9.725474E+02 -2.155340E-07 -4.593285E-07 -6.794292E-07
        19   1  1.750467E-04  1.749366E-04  9.725474E+02  7.260454E-09  3.316381E-09 -1.599904E-07
        19   2  1.750183E-04  1.750183E-04  9.725474E+02  1.240736E-08 -3.209968E-09  3.210231E-09
        19   3  1.746587E-04  1.746587E-04  9.725474E+02  1.972349E-08  2.202058E-07 -2.202064E-07
        19   4  1.749366E-04  1.750467E-04  9.725474E+02  7.260140E-09  1.599891E-07 -3.316181E-09
        19   5  1.753457E-04  1.755355E-04  9.725474E+02 -2.155315E-07  4.593309E-07  6.794288E-07
        19   6  1.751576E-04  1.751576E-04  9.725474E+02 -1.647427E-07 -4.641978E-07  4.641954E-07
        19   7  1.742834E-04  1.742834E-04  9.725474E+02 -2.632337E-07  5.218140E-07 -5.218131E-07
        19   8  1.755355E-04  1.753457E-04  9.725474E+02 -2.155300E-07 -6.794274E-07 -4.593297E-07
        20   1  1.750182E-04  1.750182E-04  9.725474E+02 -1.240739E-08  3.208551E-09  3.208835E-09
        20   2  1.750467E-04  1.749366E-04  9.725474E+02 -7.259612E-09 -3.312734E-09 -1.599889E-07
        20   3  1.749366E-04  1.750467E-04  9.725474E+02 -7.258661E-09 -1.599890E-07 -3.314638E-09
        20   4  1.746587E-04  1.746587E-04  9.725474E+02 -1.971997E-08 -2.202022E-07 -2.202040E-07
        20   5  1.751576E-04  1.751576E-04  9.725474E+02  1.647390E-07  4.641960E-07  4.641948E-07
        20   6  1.753457E-04  1.755355E-04  9.725474E+02  2.155306E-07 -4.593332E-07  6.794294E-07
        20   7  1.755355E-04  1.753457E-04  9.725474E+02  2.155334E-07  6.794286E-07 -4.593317E-07
        20   8  1.742833E-04  1.742833E-04  9.725474E+02  2.632337E-07 -5.218179E-07 -5.218133E-07