    1C
    1UModel: beam     Date: 10-Mar-1998                                 
    1UUSER                                                              
    1UDATE              30.september.2016                               
    1UTIME              11:15:03                                        
    1UHOST                                                              
    1UPGM               CalculiX                                        
    1UVERSION           Version DEVELOPMENT                             
    1UCOMPILETIME       Fr 30. Sep 10:25:58 CEST 2016                    
    1UDIR                                                               
    1UDBN                                                               
    1UMAT    1EL                                                        
    2C                            81                                     1
 -1         1 0.00000E+00 0.00000E+00 0.00000E+00
 -1         2 1.00000E+00 0.00000E+00 0.00000E+00
 -1         3 1.00000E+00 1.50000E+00 0.00000E+00
 -1         4 0.00000E+00 1.50000E+00 0.00000E+00
 -1         5 0.00000E+00 0.00000E+00 8.00000E+00
 -1         6 1.00000E+00 0.00000E+00 8.00000E+00
 -1         7 1.00000E+00 1.50000E+00 8.00000E+00
 -1         8 0.00000E+00 1.50000E+00 8.00000E+00
 -1        10 5.00000E-01 0.00000E+00 0.00000E+00
 -1        13 1.00000E+00 7.50000E-01 0.00000E+00
 -1        16 5.00000E-01 1.50000E+00 0.00000E+00
 -1        19 0.00000E+00 7.50000E-01 0.00000E+00
 -1        22 5.00000E-01 0.00000E+00 8.00000E+00
 -1        25 1.00000E+00 7.50000E-01 8.00000E+00
 -1        28 5.00000E-01 1.50000E+00 8.00000E+00
 -1        31 0.00000E+00 7.50000E-01 8.00000E+00
 -1        34 1.00000E+00 0.00000E+00 1.00000E+00
 -1        36 1.00000E+00 0.00000E+00 2.00000E+00
 -1        38 1.00000E+00 0.00000E+00 3.00000E+00
 -1        40 1.00000E+00 0.00000E+00 4.00000E+00
 -1        42 1.00000E+00 0.00000E+00 5.00000E+00
 -1        44 1.00000E+00 0.00000E+00 6.00000E+00
 -1        46 1.00000E+00 0.00000E+00 7.00000E+00
 -1        49 0.00000E+00 0.00000E+00 7.00000E+00
 -1        51 0.00000E+00 0.00000E+00 6.00000E+00
 -1        53 0.00000E+00 0.00000E+00 5.00000E+00
 -1        55 0.00000E+00 0.00000E+00 4.00000E+00
 -1        57 0.00000E+00 0.00000E+00 3.00000E+00
 -1        59 0.00000E+00 0.00000E+00 2.00000E+00
 -1        61 0.00000E+00 0.00000E+00 1.00000E+00
 -1        64 1.00000E+00 1.50000E+00 1.00000E+00
 -1        66 1.00000E+00 1.50000E+00 2.00000E+00
 -1        68 1.00000E+00 1.50000E+00 3.00000E+00
 -1        70 1.00000E+00 1.50000E+00 4.00000E+00
 -1        72 1.00000E+00 1.50000E+00 5.00000E+00
 -1        74 1.00000E+00 1.50000E+00 6.00000E+00
 -1        76 1.00000E+00 1.50000E+00 7.00000E+00
 -1        79 0.00000E+00 1.50000E+00 1.00000E+00
 -1        81 0.00000E+00 1.50000E+00 2.00000E+00
 -1        83 0.00000E+00 1.50000E+00 3.00000E+00
 -1        85 0.00000E+00 1.50000E+00 4.00000E+00
 -1        87 0.00000E+00 1.50000E+00 5.00000E+00
 -1        89 0.00000E+00 1.50000E+00 6.00000E+00
 -1        91 0.00000E+00 1.50000E+00 7.00000E+00
 -1        95 5.00000E-01 7.50000E-01 0.00000E+00
 -1       100 5.00000E-01 7.50000E-01 8.00000E+00
 -1       105 5.00000E-01 0.00000E+00 1.00000E+00
 -1       109 5.00000E-01 0.00000E+00 2.00000E+00
 -1       113 5.00000E-01 0.00000E+00 3.00000E+00
 -1       117 5.00000E-01 0.00000E+00 4.00000E+00
 -1       121 5.00000E-01 0.00000E+00 5.00000E+00
 -1       125 5.00000E-01 0.00000E+00 6.00000E+00
 -1       129 5.00000E-01 0.00000E+00 7.00000E+00
 -1       134 1.00000E+00 7.50000E-01 1.00000E+00
 -1       138 1.00000E+00 7.50000E-01 2.00000E+00
 -1       142 1.00000E+00 7.50000E-01 3.00000E+00
 -1       146 1.00000E+00 7.50000E-01 4.00000E+00
 -1       150 1.00000E+00 7.50000E-01 5.00000E+00
 -1       154 1.00000E+00 7.50000E-01 6.00000E+00
 -1       158 1.00000E+00 7.50000E-01 7.00000E+00
 -1       163 5.00000E-01 1.50000E+00 1.00000E+00
 -1       167 5.00000E-01 1.50000E+00 2.00000E+00
 -1       171 5.00000E-01 1.50000E+00 3.00000E+00
 -1       175 5.00000E-01 1.50000E+00 4.00000E+00
 -1       179 5.00000E-01 1.50000E+00 5.00000E+00
 -1       183 5.00000E-01 1.50000E+00 6.00000E+00
 -1       187 5.00000E-01 1.50000E+00 7.00000E+00
 -1       192 0.00000E+00 7.50000E-01 1.00000E+00
 -1       196 0.00000E+00 7.50000E-01 2.00000E+00
 -1       200 0.00000E+00 7.50000E-01 3.00000E+00
 -1       204 0.00000E+00 7.50000E-01 4.00000E+00
 -1       208 0.00000E+00 7.50000E-01 5.00000E+00
 -1       212 0.00000E+00 7.50000E-01 6.00000E+00
 -1       216 0.00000E+00 7.50000E-01 7.00000E+00
 -1       222 5.00000E-01 7.50000E-01 1.00000E+00
 -1       228 5.00000E-01 7.50000E-01 2.00000E+00
 -1       234 5.00000E-01 7.50000E-01 3.00000E+00
 -1       240 5.00000E-01 7.50000E-01 4.00000E+00
 -1       246 5.00000E-01 7.50000E-01 5.00000E+00
 -1       252 5.00000E-01 7.50000E-01 6.00000E+00
 -1       258 5.00000E-01 7.50000E-01 7.00000E+00
 -3
    3C                            32                                     1
 -1         1    1    0    1
 -2         1        10        95        19        61       105       222       192
 -1         2    1    0    1
 -2        10         2        13        95       105        34       134       222
 -1         3    1    0    1
 -2        19        95        16         4       192       222       163        79
 -1         4    1    0    1
 -2        95        13         3        16       222       134        64       163
 -1         5    1    0    1
 -2        61       105       222       192        59       109       228       196
 -1         6    1    0    1
 -2       105        34       134       222       109        36       138       228
 -1         7    1    0    1
 -2       192       222       163        79       196       228       167        81
 -1         8    1    0    1
 -2       222       134        64       163       228       138        66       167
 -1         9    1    0    1
 -2        59       109       228       196        57       113       234       200
 -1        10    1    0    1
 -2       109        36       138       228       113        38       142       234
 -1        11    1    0    1
 -2       196       228       167        81       200       234       171        83
 -1        12    1    0    1
 -2       228       138        66       167       234       142        68       171
 -1        13    1    0    1
 -2        57       113       234       200        55       117       240       204
 -1        14    1    0    1
 -2       113        38       142       234       117        40       146       240
 -1        15    1    0    1
 -2       200       234       171        83       204       240       175        85
 -1        16    1    0    1
 -2       234       142        68       171       240       146        70       175
 -1        17    1    0    1
 -2        55       117       240       204        53       121       246       208
 -1        18    1    0    1
 -2       117        40       146       240       121        42       150       246
 -1        19    1    0    1
 -2       204       240       175        85       208       246       179        87
 -1        20    1    0    1
 -2       240       146        70       175       246       150        72       179
 -1        21    1    0    1
 -2        53       121       246       208        51       125       252       212
 -1        22    1    0    1
 -2       121        42       150       246       125        44       154       252
 -1        23    1    0    1
 -2       208       246       179        87       212       252       183        89
 -1        24    1    0    1
 -2       246       150        72       179       252       154        74       183
 -1        25    1    0    1
 -2        51       125       252       212        49       129       258       216
 -1        26    1    0    1
 -2       125        44       154       252       129        46       158       258
 -1        27    1    0    1
 -2       212       252       183        89       216       258       187        91
 -1        28    1    0    1
 -2       252       154        74       183       258       158        76       187
 -1        29    1    0    1
 -2        49       129       258       216         5        22       100        31
 -1        30    1    0    1
 -2       129        46       158       258        22         6        25       100
 -1        31    1    0    1
 -2       216       258       187        91        31       100        28         8
 -1        32    1    0    1
 -2       258       158        76       187       100        25         7        28
 -3
    1PSTEP                         1           1           2          
  100CL  111 0.00000E+00          81                     3   11           1
 -4  NORM        4    1
 -5  NORMX       1    2	 1    0
 -5  NORMY       1    2	 2    0
 -5  NORMZ       1    2	 3    0
 -5  ALL         1    2	 0    0    1ALL
 -1         1-5.77350E-01-5.77350E-01-5.77350E-01
 -1         2 5.77350E-01-5.77350E-01-5.77350E-01
 -1         3 5.77350E-01 5.77350E-01-5.77350E-01
 -1         4-5.77350E-01 5.77350E-01-5.77350E-01
 -1         5-5.77350E-01-5.77350E-01 5.77350E-01
 -1         6 5.77350E-01-5.77350E-01 5.77350E-01
 -1         7 5.77350E-01 5.77350E-01 5.77350E-01
 -1         8-5.77350E-01 5.77350E-01 5.77350E-01
 -1        10 0.00000E+00-7.07107E-01-7.07107E-01
 -1        13 7.07107E-01 0.00000E+00-7.07107E-01
 -1        16 0.00000E+00 7.07107E-01-7.07107E-01
 -1        19-7.07107E-01 0.00000E+00-7.07107E-01
 -1        22 0.00000E+00-7.07107E-01 7.07107E-01
 -1        25 7.07107E-01 0.00000E+00 7.07107E-01
 -1        28 0.00000E+00 7.07107E-01 7.07107E-01
 -1        31-7.07107E-01 0.00000E+00 7.07107E-01
 -1        34 7.07107E-01-7.07107E-01 0.00000E+00
 -1        36 7.07107E-01-7.07107E-01 0.00000E+00
 -1        38 7.07107E-01-7.07107E-01 0.00000E+00
 -1        40 7.07107E-01-7.07107E-01 0.00000E+00
 -1        42 7.07107E-01-7.07107E-01 0.00000E+00
 -1        44 7.07107E-01-7.07107E-01 0.00000E+00
 -1        46 7.07107E-01-7.07107E-01 0.00000E+00
 -1        49-7.07107E-01-7.07107E-01 0.00000E+00
 -1        51-7.07107E-01-7.07107E-01 0.00000E+00
 -1        53-7.07107E-01-7.07107E-01 0.00000E+00
 -1        55-7.07107E-01-7.07107E-01 0.00000E+00
 -1        57-7.07107E-01-7.07107E-01 0.00000E+00
 -1        59-7.07107E-01-7.07107E-01 0.00000E+00
 -1        61-7.07107E-01-7.07107E-01 0.00000E+00
 -1        64 7.07107E-01 7.07107E-01 0.00000E+00
 -1        66 7.07107E-01 7.07107E-01 0.00000E+00
 -1        68 7.07107E-01 7.07107E-01 0.00000E+00
 -1        70 7.07107E-01 7.07107E-01 0.00000E+00
 -1        72 7.07107E-01 7.07107E-01 0.00000E+00
 -1        74 7.07107E-01 7.07107E-01 0.00000E+00
 -1        76 7.07107E-01 7.07107E-01 0.00000E+00
 -1        79-7.07107E-01 7.07107E-01 0.00000E+00
 -1        81-7.07107E-01 7.07107E-01 0.00000E+00
 -1        83-7.07107E-01 7.07107E-01 0.00000E+00
 -1        85-7.07107E-01 7.07107E-01 0.00000E+00
 -1        87-7.07107E-01 7.07107E-01 0.00000E+00
 -1        89-7.07107E-01 7.07107E-01 0.00000E+00
 -1        91-7.07107E-01 7.07107E-01 0.00000E+00
 -1        95 0.00000E+00 0.00000E+00-1.00000E+00
 -1       100 0.00000E+00 0.00000E+00 1.00000E+00
 -1       105 0.00000E+00-1.00000E+00 0.00000E+00
 -1       109 0.00000E+00-1.00000E+00 0.00000E+00
 -1       113 0.00000E+00-1.00000E+00 0.00000E+00
 -1       117 0.00000E+00-1.00000E+00 0.00000E+00
 -1       121 0.00000E+00-1.00000E+00 0.00000E+00
 -1       125 0.00000E+00-1.00000E+00 0.00000E+00
 -1       129 0.00000E+00-1.00000E+00 0.00000E+00
 -1       134 1.00000E+00 0.00000E+00 0.00000E+00
 -1       138 1.00000E+00 0.00000E+00 0.00000E+00
 -1       142 1.00000E+00 0.00000E+00 0.00000E+00
 -1       146 1.00000E+00 0.00000E+00 0.00000E+00
 -1       150 1.00000E+00 0.00000E+00 0.00000E+00
 -1       154 1.00000E+00 0.00000E+00 0.00000E+00
 -1       158 1.00000E+00 0.00000E+00 0.00000E+00
 -1       163 0.00000E+00 1.00000E+00 0.00000E+00
 -1       167 0.00000E+00 1.00000E+00 0.00000E+00
 -1       171 0.00000E+00 1.00000E+00 0.00000E+00
 -1       175 0.00000E+00 1.00000E+00 0.00000E+00
 -1       179 0.00000E+00 1.00000E+00 0.00000E+00
 -1       183 0.00000E+00 1.00000E+00 0.00000E+00
 -1       187 0.00000E+00 1.00000E+00 0.00000E+00
 -1       192-1.00000E+00 0.00000E+00 0.00000E+00
 -1       196-1.00000E+00 0.00000E+00 0.00000E+00
 -1       200-1.00000E+00 0.00000E+00 0.00000E+00
 -1       204-1.00000E+00 0.00000E+00 0.00000E+00
 -1       208-1.00000E+00 0.00000E+00 0.00000E+00
 -1       212-1.00000E+00 0.00000E+00 0.00000E+00
 -1       216-1.00000E+00 0.00000E+00 0.00000E+00
 -1       222 0.00000E+00 0.00000E+00 0.00000E+00
 -1       228 0.00000E+00 0.00000E+00 0.00000E+00
 -1       234 0.00000E+00 0.00000E+00 0.00000E+00
 -1       240 0.00000E+00 0.00000E+00 0.00000E+00
 -1       246 0.00000E+00 0.00000E+00 0.00000E+00
 -1       252 0.00000E+00 0.00000E+00 0.00000E+00
 -1       258 0.00000E+00 0.00000E+00 0.00000E+00
 -3
    1PSTEP                         1           1           2          
  100CL  112  1552221640          81                     3   12           1
 -4  SENFREQ     2    1
 -5  DFDN        1    1    1    0
 -5  DFDNFIL     1    1    2    0
 -1         1 0.00000E+00 0.00000E+00
 -1         2 0.00000E+00 0.00000E+00
 -1         3 0.00000E+00 0.00000E+00
 -1         4 0.00000E+00 0.00000E+00
 -1         5-6.83419E+08 0.00000E+00
 -1         6-6.83419E+08 0.00000E+00
 -1         7-6.83419E+08 0.00000E+00
 -1         8-6.83419E+08 0.00000E+00
 -1        10 0.00000E+00 0.00000E+00
 -1        13 0.00000E+00 0.00000E+00
 -1        16 0.00000E+00 0.00000E+00
 -1        19 0.00000E+00 0.00000E+00
 -1        22-9.00923E+08 0.00000E+00
 -1        25-1.15751E+09 0.00000E+00
 -1        28-9.00923E+08 0.00000E+00
 -1        31-1.15751E+09 0.00000E+00
 -1        34 1.94499E+09 0.00000E+00
 -1        36 1.27645E+09 0.00000E+00
 -1        38 6.74487E+08 0.00000E+00
 -1        40 1.95099E+08 0.00000E+00
 -1        42-2.05525E+08 0.00000E+00
 -1        44-5.76939E+08 0.00000E+00
 -1        46-9.68846E+08 0.00000E+00
 -1        49-9.68846E+08 0.00000E+00
 -1        51-5.76939E+08 0.00000E+00
 -1        53-2.05525E+08 0.00000E+00
 -1        55 1.95099E+08 0.00000E+00
 -1        57 6.74487E+08 0.00000E+00
 -1        59 1.27645E+09 0.00000E+00
 -1        61 1.94499E+09 0.00000E+00
 -1        64 1.94499E+09 0.00000E+00
 -1        66 1.27645E+09 0.00000E+00
 -1        68 6.74487E+08 0.00000E+00
 -1        70 1.95099E+08 0.00000E+00
 -1        72-2.05525E+08 0.00000E+00
 -1        74-5.76939E+08 0.00000E+00
 -1        76-9.68846E+08 0.00000E+00
 -1        79 1.94499E+09 0.00000E+00
 -1        81 1.27645E+09 0.00000E+00
 -1        83 6.74487E+08 0.00000E+00
 -1        85 1.95099E+08 0.00000E+00
 -1        87-2.05525E+08 0.00000E+00
 -1        89-5.76939E+08 0.00000E+00
 -1        91-9.68846E+08 0.00000E+00
 -1        95 0.00000E+00 0.00000E+00
 -1       100-1.06962E+09 0.00000E+00
 -1       105 6.72205E+08 0.00000E+00
 -1       109 4.90574E+08 0.00000E+00
 -1       113 2.18611E+08 0.00000E+00
 -1       117-4.75690E+07 0.00000E+00
 -1       121-3.41668E+08 0.00000E+00
 -1       125-6.90131E+08 0.00000E+00
 -1       129-1.11286E+09 0.00000E+00
 -1       134 4.12417E+09 0.00000E+00
 -1       138 2.61701E+09 0.00000E+00
 -1       142 1.41107E+09 0.00000E+00
 -1       146 4.73459E+08 0.00000E+00
 -1       150-2.75204E+08 0.00000E+00
 -1       154-9.33462E+08 0.00000E+00
 -1       158-1.60393E+09 0.00000E+00
 -1       163 6.72205E+08 0.00000E+00
 -1       167 4.90574E+08 0.00000E+00
 -1       171 2.18611E+08 0.00000E+00
 -1       175-4.75690E+07 0.00000E+00
 -1       179-3.41668E+08 0.00000E+00
 -1       183-6.90131E+08 0.00000E+00
 -1       187-1.11286E+09 0.00000E+00
 -1       192 4.12417E+09 0.00000E+00
 -1       196 2.61701E+09 0.00000E+00
 -1       200 1.41107E+09 0.00000E+00
 -1       204 4.73459E+08 0.00000E+00
 -1       208-2.75204E+08 0.00000E+00
 -1       212-9.33462E+08 0.00000E+00
 -1       216-1.60393E+09 0.00000E+00
 -1       222-0.00000E+00 0.00000E+00
 -1       228-0.00000E+00 0.00000E+00
 -1       234-0.00000E+00 0.00000E+00
 -1       240-0.00000E+00 0.00000E+00
 -1       246-0.00000E+00 0.00000E+00
 -1       252-0.00000E+00 0.00000E+00
 -1       258-0.00000E+00 0.00000E+00
 -3
    1PSTEP                         2           1           2          
  100CL  113  2868393320          81                     3   13           1
 -4  SENFREQ     2    1
 -5  DFDN        1    1    1    0
 -5  DFDNFIL     1    1    2    0
 -1         1 0.00000E+00 0.00000E+00
 -1         2 0.00000E+00 0.00000E+00
 -1         3 0.00000E+00 0.00000E+00
 -1         4 0.00000E+00 0.00000E+00
 -1         5-1.26563E+09 0.00000E+00
 -1         6-1.26563E+09 0.00000E+00
 -1         7-1.26563E+09 0.00000E+00
 -1         8-1.26563E+09 0.00000E+00
 -1        10 0.00000E+00 0.00000E+00
 -1        13 0.00000E+00 0.00000E+00
 -1        16 0.00000E+00 0.00000E+00
 -1        19 0.00000E+00 0.00000E+00
 -1        22-1.69471E+09 0.00000E+00
 -1        25-2.14928E+09 0.00000E+00
 -1        28-1.69471E+09 0.00000E+00
 -1        31-2.14928E+09 0.00000E+00
 -1        34 3.33389E+09 0.00000E+00
 -1        36 2.26894E+09 0.00000E+00
 -1        38 1.18525E+09 0.00000E+00
 -1        40 3.23943E+08 0.00000E+00
 -1        42-4.04264E+08 0.00000E+00
 -1        44-1.08412E+09 0.00000E+00
 -1        46-1.79953E+09 0.00000E+00
 -1        49-1.79953E+09 0.00000E+00
 -1        51-1.08412E+09 0.00000E+00
 -1        53-4.04264E+08 0.00000E+00
 -1        55 3.23943E+08 0.00000E+00
 -1        57 1.18525E+09 0.00000E+00
 -1        59 2.26894E+09 0.00000E+00
 -1        61 3.33389E+09 0.00000E+00
 -1        64 3.33389E+09 0.00000E+00
 -1        66 2.26894E+09 0.00000E+00
 -1        68 1.18525E+09 0.00000E+00
 -1        70 3.23943E+08 0.00000E+00
 -1        72-4.04264E+08 0.00000E+00
 -1        74-1.08412E+09 0.00000E+00
 -1        76-1.79953E+09 0.00000E+00
 -1        79 3.33389E+09 0.00000E+00
 -1        81 2.26894E+09 0.00000E+00
 -1        83 1.18525E+09 0.00000E+00
 -1        85 3.23943E+08 0.00000E+00
 -1        87-4.04264E+08 0.00000E+00
 -1        89-1.08412E+09 0.00000E+00
 -1        91-1.79953E+09 0.00000E+00
 -1        95 0.00000E+00 0.00000E+00
 -1       100-2.11655E+09 0.00000E+00
 -1       105 5.63018E+09 0.00000E+00
 -1       109 3.54668E+09 0.00000E+00
 -1       113 1.90642E+09 0.00000E+00
 -1       117 6.51933E+08 0.00000E+00
 -1       121-3.32479E+08 0.00000E+00
 -1       125-1.17044E+09 0.00000E+00
 -1       129-1.99661E+09 0.00000E+00
 -1       134 1.66984E+09 0.00000E+00
 -1       138 1.18111E+09 0.00000E+00
 -1       142 5.06526E+08 0.00000E+00
 -1       146-1.76691E+08 0.00000E+00
 -1       150-9.59754E+08 0.00000E+00
 -1       154-1.90532E+09 0.00000E+00
 -1       158-3.05624E+09 0.00000E+00
 -1       163 5.63018E+09 0.00000E+00
 -1       167 3.54668E+09 0.00000E+00
 -1       171 1.90642E+09 0.00000E+00
 -1       175 6.51933E+08 0.00000E+00
 -1       179-3.32479E+08 0.00000E+00
 -1       183-1.17044E+09 0.00000E+00
 -1       187-1.99661E+09 0.00000E+00
 -1       192 1.66984E+09 0.00000E+00
 -1       196 1.18111E+09 0.00000E+00
 -1       200 5.06526E+08 0.00000E+00
 -1       204-1.76691E+08 0.00000E+00
 -1       208-9.59754E+08 0.00000E+00
 -1       212-1.90532E+09 0.00000E+00
 -1       216-3.05624E+09 0.00000E+00
 -1       222-0.00000E+00 0.00000E+00
 -1       228-0.00000E+00 0.00000E+00
 -1       234-0.00000E+00 0.00000E+00
 -1       240-0.00000E+00 0.00000E+00
 -1       246-0.00000E+00 0.00000E+00
 -1       252-0.00000E+00 0.00000E+00
 -1       258-0.00000E+00 0.00000E+00
 -3
    1PSTEP                         3           1           2          
  100CL  114 5.54546E+10          81                     3   14           1
 -4  SENFREQ     2    1
 -5  DFDN        1    1    1    0
 -5  DFDNFIL     1    1    2    0
 -1         1 0.00000E+00 0.00000E+00
 -1         2 0.00000E+00 0.00000E+00
 -1         3 0.00000E+00 0.00000E+00
 -1         4 0.00000E+00 0.00000E+00
 -1         5-2.68151E+10 0.00000E+00
 -1         6-2.68151E+10 0.00000E+00
 -1         7-2.68151E+10 0.00000E+00
 -1         8-2.68151E+10 0.00000E+00
 -1        10 0.00000E+00 0.00000E+00
 -1        13 0.00000E+00 0.00000E+00
 -1        16 0.00000E+00 0.00000E+00
 -1        19 0.00000E+00 0.00000E+00
 -1        22-3.00480E+10 0.00000E+00
 -1        25-2.38634E+10 0.00000E+00
 -1        28-3.00480E+10 0.00000E+00
 -1        31-2.38634E+10 0.00000E+00
 -1        34 5.07565E+10 0.00000E+00
 -1        36 4.24470E+10 0.00000E+00
 -1        38 2.46167E+10 0.00000E+00
 -1        40 3.10888E+09 0.00000E+00
 -1        42-1.84672E+10 0.00000E+00
 -1        44-3.68098E+10 0.00000E+00
 -1        46-4.91441E+10 0.00000E+00
 -1        49-4.91441E+10 0.00000E+00
 -1        51-3.68098E+10 0.00000E+00
 -1        53-1.84672E+10 0.00000E+00
 -1        55 3.10888E+09 0.00000E+00
 -1        57 2.46167E+10 0.00000E+00
 -1        59 4.24470E+10 0.00000E+00
 -1        61 5.07565E+10 0.00000E+00
 -1        64 5.07565E+10 0.00000E+00
 -1        66 4.24470E+10 0.00000E+00
 -1        68 2.46167E+10 0.00000E+00
 -1        70 3.10888E+09 0.00000E+00
 -1        72-1.84672E+10 0.00000E+00
 -1        74-3.68098E+10 0.00000E+00
 -1        76-4.91441E+10 0.00000E+00
 -1        79 5.07565E+10 0.00000E+00
 -1        81 4.24470E+10 0.00000E+00
 -1        83 2.46167E+10 0.00000E+00
 -1        85 3.10888E+09 0.00000E+00
 -1        87-1.84672E+10 0.00000E+00
 -1        89-3.68098E+10 0.00000E+00
 -1        91-4.91441E+10 0.00000E+00
 -1        95 0.00000E+00 0.00000E+00
 -1       100-1.09488E+10 0.00000E+00
 -1       105 3.73972E+10 0.00000E+00
 -1       109 1.80145E+10 0.00000E+00
 -1       113 5.21840E+09 0.00000E+00
 -1       117-1.16135E+10 0.00000E+00
 -1       121-2.84724E+10 0.00000E+00
 -1       125-4.28074E+10 0.00000E+00
 -1       129-5.26409E+10 0.00000E+00
 -1       134 8.06572E+10 0.00000E+00
 -1       138 8.38120E+10 0.00000E+00
 -1       142 5.92204E+10 0.00000E+00
 -1       146 2.93681E+10 0.00000E+00
 -1       150-3.74126E+08 0.00000E+00
 -1       154-2.56419E+10 0.00000E+00
 -1       158-4.23182E+10 0.00000E+00
 -1       163 3.73972E+10 0.00000E+00
 -1       167 1.80145E+10 0.00000E+00
 -1       171 5.21840E+09 0.00000E+00
 -1       175-1.16135E+10 0.00000E+00
 -1       179-2.84724E+10 0.00000E+00
 -1       183-4.28074E+10 0.00000E+00
 -1       187-5.26409E+10 0.00000E+00
 -1       192 8.06572E+10 0.00000E+00
 -1       196 8.38120E+10 0.00000E+00
 -1       200 5.92204E+10 0.00000E+00
 -1       204 2.93681E+10 0.00000E+00
 -1       208-3.74126E+08 0.00000E+00
 -1       212-2.56419E+10 0.00000E+00
 -1       216-4.23182E+10 0.00000E+00
 -1       222-0.00000E+00 0.00000E+00
 -1       228-0.00000E+00 0.00000E+00
 -1       234-0.00000E+00 0.00000E+00
 -1       240-0.00000E+00 0.00000E+00
 -1       246-0.00000E+00 0.00000E+00
 -1       252-0.00000E+00 0.00000E+00
 -1       258-0.00000E+00 0.00000E+00
 -3
    1PSTEP                         4           1           2          
  100CL  115 5.56121E+10          81                     3   15           1
 -4  SENFREQ     2    1
 -5  DFDN        1    1    1    0
 -5  DFDNFIL     1    1    2    0
 -1         1 0.00000E+00 0.00000E+00
 -1         2 0.00000E+00 0.00000E+00
 -1         3 0.00000E+00 0.00000E+00
 -1         4 0.00000E+00 0.00000E+00
 -1         5-1.98932E+10 0.00000E+00
 -1         6-1.98932E+10 0.00000E+00
 -1         7-1.98932E+10 0.00000E+00
 -1         8-1.98932E+10 0.00000E+00
 -1        10 0.00000E+00 0.00000E+00
 -1        13 0.00000E+00 0.00000E+00
 -1        16 0.00000E+00 0.00000E+00
 -1        19 0.00000E+00 0.00000E+00
 -1        22-2.67895E+10 0.00000E+00
 -1        25-3.55597E+10 0.00000E+00
 -1        28-2.67895E+10 0.00000E+00
 -1        31-3.55597E+10 0.00000E+00
 -1        34 1.95561E+10 0.00000E+00
 -1        36-3.85388E+09 0.00000E+00
 -1        38 5.75189E+09 0.00000E+00
 -1        40 2.12309E+10 0.00000E+00
 -1        42 2.47643E+10 0.00000E+00
 -1        44 1.40137E+10 0.00000E+00
 -1        46-9.55659E+09 0.00000E+00
 -1        49-9.55659E+09 0.00000E+00
 -1        51 1.40137E+10 0.00000E+00
 -1        53 2.47643E+10 0.00000E+00
 -1        55 2.12309E+10 0.00000E+00
 -1        57 5.75189E+09 0.00000E+00
 -1        59-3.85388E+09 0.00000E+00
 -1        61 1.95561E+10 0.00000E+00
 -1        64 1.95561E+10 0.00000E+00
 -1        66-3.85388E+09 0.00000E+00
 -1        68 5.75189E+09 0.00000E+00
 -1        70 2.12309E+10 0.00000E+00
 -1        72 2.47643E+10 0.00000E+00
 -1        74 1.40137E+10 0.00000E+00
 -1        76-9.55659E+09 0.00000E+00
 -1        79 1.95561E+10 0.00000E+00
 -1        81-3.85388E+09 0.00000E+00
 -1        83 5.75189E+09 0.00000E+00
 -1        85 2.12309E+10 0.00000E+00
 -1        87 2.47643E+10 0.00000E+00
 -1        89 1.40137E+10 0.00000E+00
 -1        91-9.55659E+09 0.00000E+00
 -1        95 0.00000E+00 0.00000E+00
 -1       100-3.94347E+10 0.00000E+00
 -1       105 8.07727E+09 0.00000E+00
 -1       109-5.28755E+09 0.00000E+00
 -1       113-1.23624E+10 0.00000E+00
 -1       117-1.00112E+10 0.00000E+00
 -1       121-6.71905E+08 0.00000E+00
 -1       125 4.56386E+09 0.00000E+00
 -1       129-1.04609E+10 0.00000E+00
 -1       134 3.92282E+10 0.00000E+00
 -1       138-8.68962E+09 0.00000E+00
 -1       142 1.92851E+10 0.00000E+00
 -1       146 5.44974E+10 0.00000E+00
 -1       150 5.71769E+10 0.00000E+00
 -1       154 2.89376E+10 0.00000E+00
 -1       158-1.68870E+10 0.00000E+00
 -1       163 8.07727E+09 0.00000E+00
 -1       167-5.28755E+09 0.00000E+00
 -1       171-1.23624E+10 0.00000E+00
 -1       175-1.00112E+10 0.00000E+00
 -1       179-6.71905E+08 0.00000E+00
 -1       183 4.56386E+09 0.00000E+00
 -1       187-1.04609E+10 0.00000E+00
 -1       192 3.92282E+10 0.00000E+00
 -1       196-8.68962E+09 0.00000E+00
 -1       200 1.92851E+10 0.00000E+00
 -1       204 5.44974E+10 0.00000E+00
 -1       208 5.71769E+10 0.00000E+00
 -1       212 2.89376E+10 0.00000E+00
 -1       216-1.68870E+10 0.00000E+00
 -1       222-0.00000E+00 0.00000E+00
 -1       228-0.00000E+00 0.00000E+00
 -1       234-0.00000E+00 0.00000E+00
 -1       240-0.00000E+00 0.00000E+00
 -1       246-0.00000E+00 0.00000E+00
 -1       252-0.00000E+00 0.00000E+00
 -1       258-0.00000E+00 0.00000E+00
 -3
    1PSTEP                         5           1           2          
  100CL  116 9.01439E+10          81                     3   16           1
 -4  SENFREQ     2    1
 -5  DFDN        1    1    1    0
 -5  DFDNFIL     1    1    2    0
 -1         1 0.00000E+00 0.00000E+00
 -1         2 0.00000E+00 0.00000E+00
 -1         3 0.00000E+00 0.00000E+00
 -1         4 0.00000E+00 0.00000E+00
 -1         5-3.14009E+10 0.00000E+00
 -1         6-3.14009E+10 0.00000E+00
 -1         7-3.14009E+10 0.00000E+00
 -1         8-3.14009E+10 0.00000E+00
 -1        10 0.00000E+00 0.00000E+00
 -1        13 0.00000E+00 0.00000E+00
 -1        16 0.00000E+00 0.00000E+00
 -1        19 0.00000E+00 0.00000E+00
 -1        22-4.58282E+10 0.00000E+00
 -1        25-5.00215E+10 0.00000E+00
 -1        28-4.58282E+10 0.00000E+00
 -1        31-5.00215E+10 0.00000E+00
 -1        34 2.96804E+10 0.00000E+00
 -1        36-3.78951E+09 0.00000E+00
 -1        38 6.63120E+09 0.00000E+00
 -1        40 2.69464E+10 0.00000E+00
 -1        42 3.28588E+10 0.00000E+00
 -1        44 1.83379E+10 0.00000E+00
 -1        46-1.72823E+10 0.00000E+00
 -1        49-1.72823E+10 0.00000E+00
 -1        51 1.83379E+10 0.00000E+00
 -1        53 3.28588E+10 0.00000E+00
 -1        55 2.69464E+10 0.00000E+00
 -1        57 6.63120E+09 0.00000E+00
 -1        59-3.78951E+09 0.00000E+00
 -1        61 2.96804E+10 0.00000E+00
 -1        64 2.96804E+10 0.00000E+00
 -1        66-3.78951E+09 0.00000E+00
 -1        68 6.63120E+09 0.00000E+00
 -1        70 2.69464E+10 0.00000E+00
 -1        72 3.28588E+10 0.00000E+00
 -1        74 1.83379E+10 0.00000E+00
 -1        76-1.72823E+10 0.00000E+00
 -1        79 2.96804E+10 0.00000E+00
 -1        81-3.78951E+09 0.00000E+00
 -1        83 6.63120E+09 0.00000E+00
 -1        85 2.69464E+10 0.00000E+00
 -1        87 3.28588E+10 0.00000E+00
 -1        89 1.83379E+10 0.00000E+00
 -1        91-1.72823E+10 0.00000E+00
 -1        95 0.00000E+00 0.00000E+00
 -1       100-6.01615E+10 0.00000E+00
 -1       105 4.44737E+10 0.00000E+00
 -1       109-5.81877E+09 0.00000E+00
 -1       113 2.49925E+10 0.00000E+00
 -1       117 6.20893E+10 0.00000E+00
 -1       121 6.26820E+10 0.00000E+00
 -1       125 2.89740E+10 0.00000E+00
 -1       129-2.21098E+10 0.00000E+00
 -1       134 2.35254E+10 0.00000E+00
 -1       138-1.02220E+10 0.00000E+00
 -1       142-3.20632E+10 0.00000E+00
 -1       146-2.93641E+10 0.00000E+00
 -1       150-6.42036E+09 0.00000E+00
 -1       154 8.19797E+09 0.00000E+00
 -1       158-2.47944E+10 0.00000E+00
 -1       163 4.44737E+10 0.00000E+00
 -1       167-5.81877E+09 0.00000E+00
 -1       171 2.49925E+10 0.00000E+00
 -1       175 6.20893E+10 0.00000E+00
 -1       179 6.26820E+10 0.00000E+00
 -1       183 2.89740E+10 0.00000E+00
 -1       187-2.21098E+10 0.00000E+00
 -1       192 2.35254E+10 0.00000E+00
 -1       196-1.02220E+10 0.00000E+00
 -1       200-3.20632E+10 0.00000E+00
 -1       204-2.93641E+10 0.00000E+00
 -1       208-6.42036E+09 0.00000E+00
 -1       212 8.19797E+09 0.00000E+00
 -1       216-2.47944E+10 0.00000E+00
 -1       222-0.00000E+00 0.00000E+00
 -1       228-0.00000E+00 0.00000E+00
 -1       234-0.00000E+00 0.00000E+00
 -1       240-0.00000E+00 0.00000E+00
 -1       246-0.00000E+00 0.00000E+00
 -1       252-0.00000E+00 0.00000E+00
 -1       258-0.00000E+00 0.00000E+00
 -3
    1PSTEP                         6           1           2          
  100CL  117 1.69873E+11          81                     3   17           1
 -4  SENFREQ     2    1
 -5  DFDN        1    1    1    0
 -5  DFDNFIL     1    1    2    0
 -1         1 0.00000E+00 0.00000E+00
 -1         2 0.00000E+00 0.00000E+00
 -1         3 0.00000E+00 0.00000E+00
 -1         4 0.00000E+00 0.00000E+00