
                        S T E P       1


                                INCREMENT     1


 displacements (vx,vy,vz) for set NALL and time  0.1000000E+01

         1  0.000000E+00  0.000000E+00  0.000000E+00
         2  0.000000E+00  0.000000E+00  0.000000E+00
         3  0.000000E+00  0.000000E+00  0.000000E+00
         4  0.000000E+00  0.000000E+00  0.000000E+00
         5 -5.535538E-04 -2.443604E-03  7.991473E-03
         6  5.535538E-04 -2.443604E-03  7.991473E-03
         7  0.000000E+00  0.000000E+00  0.000000E+00
         8  0.000000E+00  0.000000E+00  0.000000E+00
         9  0.000000E+00  0.000000E+00  0.000000E+00
        10  0.000000E+00  0.000000E+00  0.000000E+00
        11  0.000000E+00  0.000000E+00  0.000000E+00
        12  0.000000E+00  0.000000E+00  0.000000E+00
        13  0.000000E+00  0.000000E+00  0.000000E+00
        14  0.000000E+00  0.000000E+00  0.000000E+00
        15  0.000000E+00  0.000000E+00  0.000000E+00
        16  0.000000E+00  0.000000E+00  0.000000E+00
        17  0.000000E+00  0.000000E+00  0.000000E+00
        18  0.000000E+00  0.000000E+00  0.000000E+00
        19  0.000000E+00  0.000000E+00  0.000000E+00
        20  0.000000E+00  0.000000E+00  0.000000E+00
        21 -2.618039E-04 -2.475321E-03  8.005989E-03
        22  2.406103E-18 -2.446329E-03  7.970917E-03
        23  2.618039E-04 -2.475321E-03  8.005989E-03
        24  5.188368E-04 -2.100795E-03  6.644975E-03
        25  5.100731E-04 -1.759033E-03  5.320933E-03
        26  4.190498E-04 -9.868713E-04  3.362526E-03
        27  0.000000E+00  0.000000E+00  0.000000E+00
        28  0.000000E+00  0.000000E+00  0.000000E+00
        29  0.000000E+00  0.000000E+00  0.000000E+00
        30 -4.190498E-04 -9.868713E-04  3.362526E-03
        31 -5.100731E-04 -1.759033E-03  5.320933E-03
        32 -5.188368E-04 -2.100795E-03  6.644975E-03
        33  8.982830E-04 -1.064387E-03 -4.047544E-05
        34  6.472655E-04 -1.515022E-03  1.674631E-06
        35  7.734432E-04 -2.653244E-03  2.876193E-06
        36  7.041139E-04 -3.803988E-03  1.401677E-04
        37  7.069204E-04 -5.169591E-03  3.397947E-04
        38  6.696031E-04 -6.520163E-03  6.410740E-04
        39  6.506218E-04 -7.841770E-03  1.029883E-03
        40  6.190412E-04 -8.999587E-03  1.510722E-03
        41  5.956590E-04 -9.937444E-03  2.082147E-03
        42  5.643361E-04 -1.053301E-02  2.746208E-03
        43  5.450119E-04 -1.072788E-02  3.493994E-03
        44  5.116910E-04 -1.038557E-02  4.335326E-03
        45  4.893983E-04 -9.514999E-03  5.242866E-03
        46  4.341322E-04 -7.998657E-03  6.261115E-03
        47  5.336772E-04 -5.393816E-03  7.323173E-03
        48 -5.336772E-04 -5.393816E-03  7.323173E-03
        49 -4.341322E-04 -7.998657E-03  6.261115E-03
        50 -4.893983E-04 -9.514999E-03  5.242866E-03
        51 -5.116910E-04 -1.038557E-02  4.335326E-03
        52 -5.450119E-04 -1.072788E-02  3.493994E-03
        53 -5.643361E-04 -1.053301E-02  2.746208E-03
        54 -5.956590E-04 -9.937444E-03  2.082147E-03
        55 -6.190412E-04 -8.999587E-03  1.510722E-03
        56 -6.506218E-04 -7.841770E-03  1.029883E-03
        57 -6.696031E-04 -6.520163E-03  6.410740E-04
        58 -7.069204E-04 -5.169591E-03  3.397947E-04
        59 -7.041139E-04 -3.803988E-03  1.401677E-04
        60 -7.734432E-04 -2.653244E-03  2.876193E-06
        61 -6.472655E-04 -1.515022E-03  1.674631E-06
        62 -8.982830E-04 -1.064387E-03 -4.047544E-05
        63  6.387471E-04  4.720818E-04  7.794723E-04
        64  5.055217E-04 -3.635505E-04  1.529852E-03
        65  6.404181E-04 -1.241587E-03  2.058014E-03
        66  6.352743E-04 -2.467345E-03  2.539409E-03
        67  6.840037E-04 -3.781630E-03  2.898224E-03
        68  7.049781E-04 -5.149473E-03  3.181939E-03
        69  7.370676E-04 -6.457843E-03  3.369243E-03
        70  7.604662E-04 -7.619842E-03  3.468020E-03
        71  7.905286E-04 -8.548723E-03  3.483601E-03
        72  8.190162E-04 -9.157212E-03  3.407237E-03
        73  8.446591E-04 -9.348227E-03  3.219571E-03
        74  8.395019E-04 -8.991269E-03  2.932715E-03
        75  9.028757E-04 -8.090987E-03  2.685878E-03
        76  8.543054E-04 -6.505987E-03  2.297944E-03
        77  1.084185E-03 -4.475461E-03  1.482588E-03
        78 -6.387471E-04  4.720818E-04  7.794723E-04
        79 -5.055217E-04 -3.635505E-04  1.529852E-03
        80 -6.404181E-04 -1.241587E-03  2.058014E-03
        81 -6.352743E-04 -2.467345E-03  2.539409E-03
        82 -6.840037E-04 -3.781630E-03  2.898224E-03
        83 -7.049781E-04 -5.149473E-03  3.181939E-03
        84 -7.370676E-04 -6.457843E-03  3.369243E-03
        85 -7.604662E-04 -7.619842E-03  3.468020E-03
        86 -7.905286E-04 -8.548723E-03  3.483601E-03
        87 -8.190162E-04 -9.157212E-03  3.407237E-03
        88 -8.446591E-04 -9.348227E-03  3.219571E-03
        89 -8.395019E-04 -8.991269E-03  2.932715E-03
        90 -9.028757E-04 -8.090987E-03  2.685878E-03
        91 -8.543054E-04 -6.505987E-03  2.297944E-03
        92 -1.084185E-03 -4.475461E-03  1.482588E-03
        93  0.000000E+00  0.000000E+00  0.000000E+00
        94  0.000000E+00  0.000000E+00  0.000000E+00
        95  0.000000E+00  0.000000E+00  0.000000E+00
        96  0.000000E+00  0.000000E+00  0.000000E+00
        97  0.000000E+00  0.000000E+00  0.000000E+00
        98  8.759802E-18 -2.074679E-03  6.605957E-03
        99 -2.650821E-04 -1.699008E-03  5.208733E-03
       100  6.208202E-18 -1.690045E-03  5.227303E-03
       101  2.650821E-04 -1.699008E-03  5.208733E-03
       102  1.039326E-17 -9.558503E-04  3.140439E-03
       103  7.747900E-18 -1.120056E-03  8.029439E-05
       104 -3.254270E-04 -1.565821E-03 -2.717900E-05
       105 -1.046888E-18 -1.587889E-03 -6.441280E-05
       106  3.254270E-04 -1.565821E-03 -2.717900E-05
       107 -1.437915E-17 -2.671125E-03  8.476272E-06
       108 -3.507144E-04 -3.827657E-03  1.254764E-04
       109 -1.775229E-17 -3.843738E-03  1.190263E-04
       110  3.507144E-04 -3.827657E-03  1.254764E-04
       111 -4.392634E-17 -5.169095E-03  3.374512E-04
       112 -3.350629E-04 -6.518154E-03  6.339247E-04
       113 -6.652173E-17 -6.519977E-03  6.326786E-04
       114  3.350629E-04 -6.518154E-03  6.339247E-04
       115 -9.838256E-17 -7.818188E-03  1.024260E-03
       116 -3.092985E-04 -8.974524E-03  1.504392E-03
       117 -1.033557E-16 -8.966739E-03  1.505044E-03
       118  3.092985E-04 -8.974524E-03  1.504392E-03
       119 -8.726439E-17 -9.887875E-03  2.076434E-03
       120 -2.826841E-04 -1.048533E-02  2.740829E-03
       121 -8.186722E-17 -1.047099E-02  2.741799E-03
       122  2.826841E-04 -1.048533E-02  2.740829E-03
       123 -4.483108E-17 -1.065250E-02  3.486413E-03
       124 -2.542338E-04 -1.032545E-02  4.330620E-03
       125 -4.821121E-17 -1.030277E-02  4.332880E-03
       126  2.542338E-04 -1.032545E-02  4.330620E-03
       127 -4.086131E-17 -9.408633E-03  5.239417E-03
       128 -2.219536E-04 -7.891280E-03  6.258912E-03
       129 -1.310244E-17 -7.863577E-03  6.264159E-03
       130  2.219536E-04 -7.891280E-03  6.258912E-03
       131 -1.708762E-17 -5.333708E-03  7.298445E-03
       132  7.694578E-04 -2.183048E-04  4.817516E-04
       133  6.248519E-04 -1.206562E-03  3.810601E-04
       134  6.041168E-04 -9.265807E-04  7.153804E-04
       135  5.531596E-04 -6.263446E-04  1.113624E-03
       136  6.945057E-04 -1.903491E-03  1.040305E-03
       137  6.964374E-04 -3.463361E-03  7.470159E-04
       138  6.883641E-04 -3.132106E-03  1.326307E-03
       139  6.622331E-04 -2.797571E-03  1.917983E-03
       140  6.903865E-04 -4.466004E-03  1.622179E-03
       141  6.821605E-04 -6.186942E-03  1.289546E-03
       142  6.949297E-04 -5.849698E-03  1.908968E-03
       143  6.994953E-04 -5.501142E-03  2.530426E-03
       144  6.916217E-04 -7.168979E-03  2.200098E-03
       145  6.564378E-04 -8.683885E-03  2.015414E-03
       146  6.936741E-04 -8.350681E-03  2.489378E-03
       147  7.282983E-04 -7.993821E-03  2.967769E-03
       148  6.919319E-04 -9.290067E-03  2.781559E-03
       149  6.315654E-04 -1.023992E-02  2.922416E-03
       150  6.988650E-04 -9.915092E-03  3.076001E-03
       151  7.545686E-04 -9.552862E-03  3.213852E-03
       152  6.889557E-04 -1.010259E-02  3.358775E-03
       153  6.082979E-04 -1.012052E-02  4.009547E-03
       154  7.038180E-04 -9.810866E-03  3.641550E-03
       155  7.868156E-04 -9.420219E-03  3.325287E-03
       156  6.769598E-04 -8.901638E-03  3.963570E-03
       157  6.075135E-04 -7.741495E-03  5.260254E-03
       158  7.827670E-04 -7.435708E-03  4.256234E-03
       159  7.650046E-04 -7.004248E-03  3.075728E-03
       160  6.265073E-04 -4.912003E-03  4.598631E-03
       161  4.305851E-19  4.182628E-04  8.830218E-04
       162  2.554600E-04 -3.892048E-04  1.521718E-03
       163 -5.138519E-18 -3.811214E-04  1.494842E-03
       164 -2.554600E-04 -3.892048E-04  1.521718E-03
       165 -9.790965E-18 -1.284394E-03  2.071664E-03
       166  3.163149E-04 -2.471930E-03  2.538917E-03
       167 -2.578865E-18 -2.469823E-03  2.533354E-03
       168 -3.163149E-04 -2.471930E-03  2.538917E-03
       169 -4.868237E-17 -3.791431E-03  2.907025E-03
       170  3.527817E-04 -5.139888E-03  3.187719E-03
       171 -7.780068E-17 -5.133936E-03  3.185583E-03
       172 -3.527817E-04 -5.139888E-03  3.187719E-03
       173 -9.157165E-17 -6.438401E-03  3.375538E-03
       174  3.800580E-04 -7.591555E-03  3.473622E-03
       175 -9.262037E-17 -7.579895E-03  3.473414E-03
       176 -3.800580E-04 -7.591555E-03  3.473622E-03
       177 -7.675789E-17 -8.502574E-03  3.489206E-03
       178  4.097525E-04 -9.101315E-03  3.415320E-03
       179 -5.024775E-17 -9.080464E-03  3.414551E-03
       180 -4.097525E-04 -9.101315E-03  3.415320E-03
       181 -3.256688E-17 -9.282551E-03  3.224624E-03
       182  4.186806E-04 -8.920507E-03  2.944932E-03
       183 -6.964940E-18 -8.881042E-03  2.956898E-03
       184 -4.186806E-04 -8.920507E-03  2.944932E-03
       185 -5.849359E-18 -8.010536E-03  2.669104E-03
       186  4.273899E-04 -6.353664E-03  2.331290E-03
       187 -1.998415E-17 -6.297211E-03  2.356624E-03
       188 -4.273899E-04 -6.353664E-03  2.331290E-03
       189 -1.597231E-18 -4.366522E-03  1.402761E-03
       190 -7.694578E-04 -2.183048E-04  4.817516E-04
       191 -5.531596E-04 -6.263446E-04  1.113624E-03
       192 -6.041168E-04 -9.265807E-04  7.153804E-04
       193 -6.248519E-04 -1.206562E-03  3.810601E-04
       194 -6.945057E-04 -1.903491E-03  1.040305E-03
       195 -6.622331E-04 -2.797571E-03  1.917983E-03
       196 -6.883641E-04 -3.132106E-03  1.326307E-03
       197 -6.964374E-04 -3.463361E-03  7.470159E-04
       198 -6.903865E-04 -4.466004E-03  1.622179E-03
       199 -6.994953E-04 -5.501142E-03  2.530426E-03
       200 -6.949297E-04 -5.849698E-03  1.908968E-03
       201 -6.821605E-04 -6.186942E-03  1.289546E-03
       202 -6.916217E-04 -7.168979E-03  2.200098E-03
       203 -7.282983E-04 -7.993821E-03  2.967769E-03
       204 -6.936741E-04 -8.350681E-03  2.489378E-03
       205 -6.564378E-04 -8.683885E-03  2.015414E-03
       206 -6.919319E-04 -9.290067E-03  2.781559E-03
       207 -7.545686E-04 -9.552862E-03  3.213852E-03
       208 -6.988650E-04 -9.915092E-03  3.076001E-03
       209 -6.315654E-04 -1.023992E-02  2.922416E-03
       210 -6.889557E-04 -1.010259E-02  3.358775E-03
       211 -7.868156E-04 -9.420219E-03  3.325287E-03
       212 -7.038180E-04 -9.810866E-03  3.641550E-03
       213 -6.082979E-04 -1.012052E-02  4.009547E-03
       214 -6.769598E-04 -8.901638E-03  3.963570E-03
       215 -7.650046E-04 -7.004248E-03  3.075728E-03
       216 -7.827670E-04 -7.435708E-03  4.256234E-03
       217 -6.075135E-04 -7.741495E-03  5.260254E-03
       218 -6.265073E-04 -4.912003E-03  4.598631E-03
       219  8.577938E-18 -2.714509E-04  5.997991E-04
       220 -5.019928E-19 -1.261170E-03  3.170435E-04
       221 -3.024925E-04 -9.631905E-04  6.927398E-04
       222  3.871635E-18 -9.677900E-04  6.577600E-04
       223  3.024925E-04 -9.631905E-04  6.927398E-04
       224  3.174262E-19 -6.569262E-04  1.068259E-03
       225 -3.908451E-18 -1.935699E-03  1.049501E-03
       226 -1.525678E-17 -3.492618E-03  7.297342E-04
       227 -3.432146E-04 -3.144476E-03  1.321839E-03
       228 -2.679435E-17 -3.149877E-03  1.318298E-03
       229  3.432146E-04 -3.144476E-03  1.321839E-03
       230 -2.299212E-17 -2.807476E-03  1.914264E-03
       231 -4.050563E-17 -4.471658E-03  1.621876E-03
       232 -7.630247E-17 -6.182484E-03  1.282972E-03
       233 -3.475762E-04 -5.843806E-03  1.909936E-03
       234 -6.745068E-17 -5.841428E-03  1.910132E-03
       235  3.475762E-04 -5.843806E-03  1.909936E-03
       236 -6.417254E-17 -5.489346E-03  2.535742E-03
       237 -9.644820E-17 -7.146907E-03  2.199560E-03
       238 -9.051455E-17 -8.650518E-03  2.009421E-03
       239 -3.467594E-04 -8.324779E-03  2.488988E-03
       240 -9.808694E-17 -8.316484E-03  2.489330E-03
       241  3.467594E-04 -8.324779E-03  2.488988E-03
       242 -9.758602E-17 -7.956749E-03  2.972803E-03
       243 -6.683147E-17 -9.240493E-03  2.782312E-03
       244 -7.700861E-17 -1.017881E-02  2.915900E-03
       245 -3.495349E-04 -9.869414E-03  3.075117E-03
       246 -5.966679E-17 -9.855433E-03  3.071707E-03
       247  3.495349E-04 -9.869414E-03  3.075117E-03
       248 -5.176570E-17 -9.484523E-03  3.220787E-03
       249 -5.981855E-17 -1.002517E-02  3.362332E-03
       250 -3.702209E-17 -1.003585E-02  3.998784E-03
       251 -3.520210E-04 -9.746171E-03  3.633064E-03
       252 -3.838276E-17 -9.723588E-03  3.632259E-03
       253  3.520210E-04 -9.746171E-03  3.633064E-03
       254 -2.973398E-17 -9.322228E-03  3.325038E-03
       255 -2.183164E-17 -8.803551E-03  3.970351E-03
       256 -9.366212E-18 -7.609172E-03  5.256887E-03
       257 -3.905765E-04 -7.341076E-03  4.261547E-03
       258 -7.091909E-18 -7.307292E-03  4.240737E-03
       259  3.905765E-04 -7.341076E-03  4.261547E-03
       260 -1.085631E-17 -6.834860E-03  3.141245E-03
       261 -5.869295E-18 -4.821895E-03  4.566998E-03

 stresses (elem, integ.pnt.,sxx,syy,szz,sxy,sxz,syz) for set EALL and time  0.1000000E+01

         1   1 -1.983114E+02 -1.992615E+02 -3.249509E+02  4.968327E+00 -1.068026E+02 -1.053653E+02
         1   2 -1.780255E+02 -1.792900E+02 -2.784497E+02 -5.308620E-01 -1.882470E+01 -1.111487E+02
         1   3 -1.514865E+02 -1.425076E+02 -1.617427E+02  4.335189E+00 -9.649032E+01 -2.252732E+01
         1   4 -1.322138E+02 -1.238202E+02 -1.163558E+02 -7.447615E-01 -1.632634E+01 -2.805349E+01
         1   5  8.166723E+01  7.954465E+01 -1.822602E+02 -1.189483E+00  4.975624E+01  3.842707E+01
         1   6  5.842278E+01  5.840389E+01 -2.458891E+02 -2.505961E+00  1.741201E+01  3.761905E+01
         1   7  5.862036E+01  5.842897E+01 -1.547499E+02 -3.871144E-01  4.283649E+01 -5.889590E+00
         1   8  3.351893E+01  3.468608E+01 -2.180438E+02 -8.379366E-01  1.530502E+01 -4.262636E+00
         2   1 -1.780255E+02 -1.792900E+02 -2.784497E+02  5.308620E-01  1.882470E+01 -1.111487E+02
         2   2 -1.983114E+02 -1.992615E+02 -3.249509E+02 -4.968327E+00  1.068026E+02 -1.053653E+02
         2   3 -1.322138E+02 -1.238202E+02 -1.163558E+02  7.447615E-01  1.632634E+01 -2.805349E+01
         2   4 -1.514865E+02 -1.425076E+02 -1.617427E+02 -4.335189E+00  9.649032E+01 -2.252732E+01
         2   5  5.842278E+01  5.840389E+01 -2.458891E+02  2.505961E+00 -1.741201E+01  3.761905E+01
         2   6  8.166723E+01  7.954465E+01 -1.822602E+02  1.189483E+00 -4.975624E+01  3.842707E+01
         2   7  3.351893E+01  3.468608E+01 -2.180438E+02  8.379366E-01 -1.530502E+01 -4.262636E+00
         2   8  5.862036E+01  5.842897E+01 -1.547499E+02  3.871144E-01 -4.283649E+01 -5.889590E+00
         3   1 -1.509965E+02 -1.586187E+02 -9.767941E+01  3.276896E+00 -8.916822E+01  9.633918E+00
         3   2 -1.321625E+02 -1.405807E+02 -5.345075E+01 -1.228582E+00 -1.480472E+01  3.024368E+00
         3   3 -1.413275E+02 -1.404093E+02 -2.192977E+01  2.571450E+00 -7.980632E+01  8.112885E+01
         3   4 -1.230535E+02 -1.231900E+02  1.934729E+01 -1.587507E+00 -1.337442E+01  7.432162E+01
         3   5  5.025821E+01  4.862365E+01 -1.015501E+02  3.685657E+00  3.961531E+01 -3.630037E+01
         3   6  2.677625E+01  2.560648E+01 -1.612305E+02  6.594244E-01  1.428885E+01 -3.397741E+01
         3   7  6.549159E+01  6.759422E+01  4.019210E+01  3.724399E+00  3.692084E+01 -4.853758E+01
         3   8  4.862479E+01  5.045047E+01 -1.013031E+01  1.560263E+00  1.287463E+01 -4.511873E+01
         4   1 -1.321625E+02 -1.405807E+02 -5.345075E+01  1.228582E+00  1.480472E+01  3.024368E+00
         4   2 -1.509965E+02 -1.586187E+02 -9.767941E+01 -3.276896E+00  8.916822E+01  9.633918E+00
         4   3 -1.230535E+02 -1.231900E+02  1.934729E+01  1.587507E+00  1.337442E+01  7.432162E+01
         4   4 -1.413275E+02 -1.404093E+02 -2.192977E+01 -2.571450E+00  7.980632E+01  8.112885E+01
         4   5  2.677625E+01  2.560648E+01 -1.612305E+02 -6.594244E-01 -1.428885E+01 -3.397741E+01
         4   6  5.025821E+01  4.862365E+01 -1.015501E+02 -3.685657E+00 -3.961531E+01 -3.630037E+01
         4   7  4.862479E+01  5.045047E+01 -1.013031E+01 -1.560263E+00 -1.287463E+01 -4.511873E+01
         4   8  6.549159E+01  6.759422E+01  4.019210E+01 -3.724399E+00 -3.692084E+01 -4.853758E+01
         5   1 -3.887293E+01 -3.606378E+01 -2.427586E+02 -1.559177E+00 -1.946644E+01 -2.673314E+01
         5   2 -2.472187E+01 -2.211615E+01 -2.155631E+02  9.592527E-01 -9.357648E+00 -2.226942E+01
         5   3 -2.824232E+01 -3.160528E+01 -1.570913E+02 -1.995237E+00 -1.542277E+01 -2.612320E+01
         5   4 -1.722745E+01 -2.148715E+01 -1.327805E+02  1.326212E+00 -8.634919E+00 -2.348508E+01
         5   5  1.440636E+01  1.531414E+01 -1.730758E+02  1.158816E+00  8.644617E+00  1.420933E+00
         5   6  7.691857E+00  9.039226E+00 -1.847594E+02  5.968170E-01  3.446488E+00 -2.841656E-01
         5   7  8.337019E+00  9.420521E+00 -1.434170E+02  8.174479E-01  4.790859E+00 -1.791267E+01
         5   8  2.412993E+00  3.810273E+00 -1.531792E+02  3.007123E-01  1.975194E+00 -1.621318E+01
         6   1 -2.472187E+01 -2.211615E+01 -2.155631E+02 -9.592527E-01  9.357648E+00 -2.226942E+01
         6   2 -3.887293E+01 -3.606378E+01 -2.427586E+02  1.559177E+00  1.946644E+01 -2.673314E+01
         6   3 -1.722745E+01 -2.148715E+01 -1.327805E+02 -1.326212E+00  8.634919E+00 -2.348508E+01
         6   4 -2.824232E+01 -3.160528E+01 -1.570913E+02  1.995237E+00  1.542277E+01 -2.612320E+01
         6   5  7.691857E+00  9.039226E+00 -1.847594E+02 -5.968170E-01 -3.446488E+00 -2.841656E-01
         6   6  1.440636E+01  1.531414E+01 -1.730758E+02 -1.158816E+00 -8.644617E+00  1.420933E+00
         6   7  2.412993E+00  3.810273E+00 -1.531792E+02 -3.007123E-01 -1.975194E+00 -1.621318E+01
         6   8  8.337019E+00  9.420521E+00 -1.434170E+02 -8.174479E-01 -4.790859E+00 -1.791267E+01
         7   1 -1.949492E+01 -1.443566E+01 -1.013727E+02 -1.526072E+00 -1.414805E+01 -8.435291E+00
         7   2 -8.444870E+00 -4.170554E+00 -7.804603E+01  1.312704E+00 -8.101148E+00 -6.847581E+00
         7   3 -3.397813E+01 -3.674659E+01 -6.408104E+01 -2.211588E+00 -1.569724E+01  8.063401E+00
         7   4 -2.133386E+01 -2.558217E+01 -4.269758E+01  1.430240E+00 -8.430535E+00  6.944093E+00
         7   5  6.021453E+00  4.468673E+00 -1.157258E+02 -2.453647E-01  4.286074E+00 -2.276133E+01
         7   6  6.892585E-01 -5.270259E-01 -1.244221E+02 -1.571003E-01  1.850456E+00 -2.002130E+01
         7   7  1.103928E+01  1.014324E+01 -6.546005E+01 -5.541071E-01  5.300438E+00 -1.290617E+01
         7   8  5.943871E+00  5.273461E+00 -7.424033E+01 -4.234274E-01  1.427795E+00 -9.734229E+00
         8   1 -8.444870E+00 -4.170554E+00 -7.804603E+01 -1.312704E+00  8.101148E+00 -6.847581E+00
         8   2 -1.949492E+01 -1.443566E+01 -1.013727E+02  1.526072E+00  1.414805E+01 -8.435291E+00
         8   3 -2.133386E+01 -2.558217E+01 -4.269758E+01 -1.430240E+00  8.430535E+00  6.944093E+00
         8   4 -3.397813E+01 -3.674659E+01 -6.408104E+01  2.211588E+00  1.569724E+01  8.063401E+00
         8   5  6.892585E-01 -5.270259E-01 -1.244221E+02  1.571003E-01 -1.850456E+00 -2.002130E+01
         8   6  6.021453E+00  4.468673E+00 -1.157258E+02  2.453647E-01 -4.286074E+00 -2.276133E+01
         8   7  5.943871E+00  5.273461E+00 -7.424033E+01  4.234274E-01 -1.427795E+00 -9.734229E+00
         8   8  1.103928E+01  1.014324E+01 -6.546005E+01  5.541071E-01 -5.300438E+00 -1.290617E+01
         9   1 -5.894097E+00 -7.311612E+00 -1.631313E+02 -1.045039E+00 -3.585337E+00 -1.214953E+01
         9   2 -5.291427E+00 -4.543798E+00 -1.577789E+02 -1.105827E+00 -8.116731E-01 -8.733684E+00
         9   3 -2.404894E+00 -4.522446E+00 -1.366666E+02 -4.626629E-01 -1.924439E+00 -1.934303E+01
         9   4 -2.182444E+00 -2.059152E+00 -1.332576E+02 -6.712527E-01 -9.123652E-01 -1.642406E+01
         9   5  2.386310E+00  2.781727E+00 -1.219101E+02  7.086684E-01  2.307505E+00 -5.521522E+00
         9   6  8.905865E-01  8.690105E-01 -1.244232E+02  4.145090E-01  1.272713E+00 -5.716273E+00
         9   7  8.592867E-01  1.671871E+00 -1.279048E+02  3.914216E-01  1.256858E-01 -1.897331E+01
         9   8 -2.093511E-02  3.358237E-01 -1.288032E+02  1.341963E-01  5.196982E-02 -1.698019E+01
        10   1 -5.291427E+00 -4.543798E+00 -1.577789E+02  1.105827E+00  8.116731E-01 -8.733684E+00
        10   2 -5.894097E+00 -7.311612E+00 -1.631313E+02  1.045039E+00  3.585337E+00 -1.214953E+01
        10   3 -2.182444E+00 -2.059152E+00 -1.332576E+02  6.712527E-01  9.123652E-01 -1.642406E+01
        10   4 -2.404894E+00 -4.522446E+00 -1.366666E+02  4.626629E-01  1.924439E+00 -1.934303E+01
        10   5  8.905865E-01  8.690105E-01 -1.244232E+02 -4.145090E-01 -1.272713E+00 -5.716273E+00
        10   6  2.386310E+00  2.781727E+00 -1.219101E+02 -7.086684E-01 -2.307505E+00 -5.521522E+00
        10   7 -2.093511E-02  3.358237E-01 -1.288032E+02 -1.341963E-01 -5.196982E-02 -1.698019E+01
        10   8  8.592867E-01  1.671871E+00 -1.279048E+02 -3.914216E-01 -1.256858E-01 -1.897331E+01
        11   1 -2.029480E+00 -3.751820E+00 -1.212366E+02  9.139671E-01 -1.497257E+00 -1.683839E+01
        11   2 -2.211312E+00 -2.076649E+00 -1.184153E+02 -5.121947E-02 -6.761780E-01 -1.485197E+01
        11   3 -3.278404E+00 -1.678693E+00 -1.040127E+02  1.393162E+00 -3.821685E+00 -4.846766E+00
        11   4 -3.259411E+00  2.830957E-01 -9.990632E+01  2.701328E-01 -1.708028E+00 -5.421461E+00
        11   5 -4.822810E-02 -1.515103E-01 -1.315898E+02 -2.409516E-01  1.088241E-01 -2.033466E+01
        11   6 -6.221885E-01 -8.458327E-01 -1.321497E+02 -1.648807E-01  1.038775E-01 -1.747366E+01
        11   7  1.682808E+00  1.491660E+00 -1.328320E+02 -5.062664E-01  4.478465E-01 -7.920795E+00
        11   8  6.078153E-01  2.678331E-01 -1.347810E+02 -3.468716E-01 -2.835934E-01 -5.606054E+00
        12   1 -2.211312E+00 -2.076649E+00 -1.184153E+02  5.121947E-02  6.761780E-01 -1.485197E+01
        12   2 -2.029480E+00 -3.751820E+00 -1.212366E+02 -9.139671E-01  1.497257E+00 -1.683839E+01
        12   3 -3.259411E+00  2.830957E-01 -9.990632E+01 -2.701328E-01  1.708028E+00 -5.421461E+00
        12   4 -3.278404E+00 -1.678693E+00 -1.040127E+02 -1.393162E+00  3.821685E+00 -4.846766E+00
        12   5 -6.221885E-01 -8.458327E-01 -1.321497E+02  1.648807E-01 -1.038775E-01 -1.747366E+01
        12   6 -4.822810E-02 -1.515103E-01 -1.315898E+02  2.409516E-01 -1.088241E-01 -2.033466E+01
        12   7  6.078153E-01  2.678331E-01 -1.347810E+02  3.468716E-01  2.835934E-01 -5.606054E+00
        12   8  1.682808E+00  1.491660E+00 -1.328320E+02  5.062664E-01 -4.478465E-01 -7.920795E+00
        13   1 -1.241818E+00 -1.247771E+00 -9.935880E+01 -5.219293E-01 -1.629984E-01 -8.644803E+00
        13   2 -2.180666E-01  8.698703E-02 -9.819108E+01 -2.326317E-01  2.201780E-01 -6.572712E+00
        13   3 -4.855712E-01 -9.973768E-01 -1.212381E+02 -3.438270E-01  1.448668E-01 -1.888361E+01
        13   4 -7.520218E-02 -3.262944E-01 -1.211241E+02  1.111144E-02 -1.208261E-01 -1.609102E+01
        13   5  5.043957E-01  4.525166E-01 -6.376043E+01  1.507397E-01  1.162414E+00 -6.535150E+00
        13   6 -3.772807E-03 -1.952701E-01 -6.414075E+01  1.947671E-01  8.555178E-01 -5.930716E+00
        13   7 -1.412696E-01 -4.667764E-02 -1.121993E+02  7.305277E-02 -2.891902E-01 -1.962608E+01
        13   8 -3.989289E-01 -4.531823E-01 -1.122952E+02  5.371719E-02 -7.819285E-02 -1.748678E+01
        14   1 -2.180666E-01  8.698703E-02 -9.819108E+01  2.326317E-01 -2.201780E-01 -6.572712E+00
        14   2 -1.241818E+00 -1.247771E+00 -9.935880E+01  5.219293E-01  1.629984E-01 -8.644803E+00
        14   3 -7.520218E-02 -3.262944E-01 -1.211241E+02 -1.111144E-02  1.208261E-01 -1.609102E+01
        14   4 -4.855712E-01 -9.973768E-01 -1.212381E+02  3.438270E-01 -1.448668E-01 -1.888361E+01
        14   5 -3.772807E-03 -1.952701E-01 -6.414075E+01 -1.947671E-01 -8.555178E-01 -5.930716E+00
        14   6  5.043957E-01  4.525166E-01 -6.376043E+01 -1.507397E-01 -1.162414E+00 -6.535150E+00
        14   7 -3.989289E-01 -4.531823E-01 -1.122952E+02 -5.371719E-02  7.819285E-02 -1.748678E+01
        14   8 -1.412696E-01 -4.667764E-02 -1.121993E+02 -7.305277E-02  2.891902E-01 -1.962608E+01
        15   1  2.533776E-01  3.784736E-01 -1.367571E+02  1.516373E-01  2.878015E-01 -1.813401E+01
        15   2  4.530947E-01  5.490651E-01 -1.368914E+02  2.076081E-01 -4.414490E-03 -1.598881E+01
        15   3 -1.108371E+00 -1.364474E+00 -1.608570E+02  1.661581E-01 -1.157941E+00 -7.286607E+00
        15   4 -2.847406E-01 -5.981831E-01 -1.599641E+02  2.852106E-01 -9.993788E-01 -6.951286E+00
        15   5  4.775102E-01  7.290966E-01 -1.463812E+02 -4.030686E-01 -3.348684E-01 -1.860077E+01
        15   6  3.570782E-01  6.560373E-01 -1.464124E+02 -6.758989E-02 -1.391194E-02 -1.613087E+01
        15   7  2.451378E-01 -5.657601E-02 -1.943597E+02  3.062533E-02 -4.676925E-01 -8.080532E+00
        15   8 -7.203386E-02 -2.751339E-01 -1.947545E+02  1.491380E-01 -4.933248E-01 -6.150703E+00
        16   1  4.530947E-01  5.490651E-01 -1.368914E+02 -2.076081E-01  4.414490E-03 -1.598881E+01
        16   2  2.533776E-01  3.784736E-01 -1.367571E+02 -1.516373E-01 -2.878015E-01 -1.813401E+01
        16   3 -2.847406E-01 -5.981831E-01 -1.599641E+02 -2.852106E-01  9.993788E-01 -6.951286E+00
        16   4 -1.108371E+00 -1.364474E+00 -1.608570E+02 -1.661581E-01  1.157941E+00 -7.286607E+00
        16   5  3.570782E-01  6.560373E-01 -1.464124E+02  6.758989E-02  1.391194E-02 -1.613087E+01
        16   6  4.775102E-01  7.290966E-01 -1.463812E+02  4.030686E-01  3.348684E-01 -1.860077E+01
        16   7 -7.203386E-02 -2.751339E-01 -1.947545E+02 -1.491380E-01  4.933248E-01 -6.150703E+00
        16   8  2.451378E-01 -5.657601E-02 -1.943597E+02 -3.062533E-02  4.676925E-01 -8.080532E+00
        17   1 -2.109813E-02  4.494067E-01 -3.907990E+01 -3.087782E-02  2.682610E-01 -8.500763E+00
        17   2 -1.458875E-02  6.804033E-01 -3.889339E+01 -9.568465E-02  5.745009E-01 -6.915059E+00
        17   3  1.418684E-01  7.018937E-01 -1.046668E+02  7.973300E-02  1.625151E-01 -1.877466E+01
        17   4  3.465645E-01  1.164084E+00 -1.041525E+02  7.670140E-03  9.860739E-02 -1.600040E+01
        17   5 -7.545432E-01 -1.424976E+00 -4.503261E+00 -2.193486E-02  1.120378E+00 -7.342994E+00
        17   6 -6.458693E-02 -1.334706E+00 -4.204526E+00 -2.461887E-01  6.917867E-01 -6.415261E+00
        17   7  6.519717E-01 -4.581371E-01 -9.518177E+01 -2.721266E-01 -5.279078E-01 -1.899620E+01
        17   8  2.255204E-01 -1.385255E+00 -9.648486E+01 -2.306514E-01 -6.209231E-01 -1.718260E+01
        18   1 -1.458875E-02  6.804033E-01 -3.889339E+01  9.568465E-02 -5.745009E-01 -6.915059E+00
        18   2 -2.109813E-02  4.494067E-01 -3.907990E+01  3.087782E-02 -2.682610E-01 -8.500763E+00
        18   3  3.465645E-01  1.164084E+00 -1.041525E+02 -7.670140E-03 -9.860739E-02 -1.600040E+01
        18   4  1.418684E-01  7.018937E-01 -1.046668E+02 -7.973300E-02 -1.625151E-01 -1.877466E+01
        18   5 -6.458693E-02 -1.334706E+00 -4.204526E+00  2.461887E-01 -6.917867E-01 -6.415261E+00
        18   6 -7.545432E-01 -1.424976E+00 -4.503261E+00  2.193486E-02 -1.120378E+00 -7.342994E+00
        18   7  2.255204E-01 -1.385255E+00 -9.648486E+01  2.306514E-01  6.209231E-01 -1.718260E+01
        18   8  6.519717E-01 -4.581371E-01 -9.518177E+01  2.721266E-01  5.279078E-01 -1.899620E+01
        19   1 -5.844466E-01  9.650392E-02 -1.546322E+02  6.963829E-02  5.177704E-01 -1.833200E+01
        19   2 -6.695192E-01 -2.345197E-01 -1.542630E+02  4.677427E-03  2.780714E-01 -1.603983E+01
        19   3 -9.622815E-02  6.931170E-01 -2.193128E+02 -6.943178E-02 -7.817109E-01 -7.178647E+00
        19   4 -3.658457E-01  1.965858E-01 -2.192155E+02 -1.431985E-01 -6.678891E-01 -6.795846E+00
        19   5 -3.500516E-01  1.369081E-01 -1.637206E+02  1.304561E+00 -1.701998E-01 -2.320938E+01
        19   6  1.589515E-01  1.456342E+00 -1.638768E+02  1.839282E-01 -4.052759E-01 -2.009936E+01
        19   7  3.942992E-01  2.295147E+00 -2.536351E+02  1.396266E-01 -2.868125E-01 -3.786756E+00
        19   8  1.557046E+00  4.097118E+00 -2.524347E+02 -1.332912E-01 -7.744595E-01 -1.509120E+00
        20   1 -6.695192E-01 -2.345197E-01 -1.542630E+02 -4.677427E-03 -2.780714E-01 -1.603983E+01
        20   2 -5.844466E-01  9.650392E-02 -1.546322E+02 -6.963829E-02 -5.177704E-01 -1.833200E+01
        20   3 -3.658457E-01  1.965858E-01 -2.192155E+02  1.431985E-01  6.678891E-01 -6.795846E+00
        20   4 -9.622815E-02  6.931170E-01 -2.193128E+02  6.943178E-02  7.817109E-01 -7.178647E+00
        20   5  1.589515E-01  1.456342E+00 -1.638768E+02 -1.839282E-01  4.052759E-01 -2.009936E+01
        20   6 -3.500516E-01  1.369081E-01 -1.637206E+02 -1.304561E+00  1.701998E-01 -2.320938E+01
        20   7  1.557046E+00  4.097118E+00 -2.524347E+02  1.332912E-01  7.744595E-01 -1.509120E+00
        20   8  3.942992E-01  2.295147E+00 -2.536351E+02 -1.396266E-01  2.868125E-01 -3.786756E+00