    1C
    1UModel: beam     Date: 10-Mar-1998                                 
    1UUSER                                                              
    1UDATE              15.september.2023                               
    1UTIME              11:22:59                                        
    1UHOST                                                              
    1UPGM               CalculiX                                        
    1UVERSION           Version DEVELOPMENT                             
    1UCOMPILETIME       Fri Sep 15 11:00:53 CEST 2023                    
    1UDIR                                                               
    1UDBN                                                               
    1UMAT    1ANISO_CREEPEL                                             
    2C                            20                                     1
 -1         2 1.00000E+00 0.00000E+00 0.00000E+00
 -1        10 5.00000E-01 0.00000E+00 0.00000E+00
 -1        11 7.50000E-01 0.00000E+00 0.00000E+00
 -1        12 1.00000E+00 2.50000E-01 0.00000E+00
 -1        13 1.00000E+00 5.00000E-01 0.00000E+00
 -1        33 1.00000E+00 0.00000E+00 5.00000E-01
 -1        34 1.00000E+00 0.00000E+00 1.00000E+00
 -1        93 5.00000E-01 2.50000E-01 0.00000E+00
 -1        95 5.00000E-01 5.00000E-01 0.00000E+00
 -1        96 7.50000E-01 5.00000E-01 0.00000E+00
 -1       103 5.00000E-01 0.00000E+00 5.00000E-01
 -1       105 5.00000E-01 0.00000E+00 1.00000E+00
 -1       106 7.50000E-01 0.00000E+00 1.00000E+00
 -1       132 1.00000E+00 5.00000E-01 5.00000E-01
 -1       133 1.00000E+00 2.50000E-01 1.00000E+00
 -1       134 1.00000E+00 5.00000E-01 1.00000E+00
 -1       219 5.00000E-01 5.00000E-01 5.00000E-01
 -1       220 5.00000E-01 2.50000E-01 1.00000E+00
 -1       222 5.00000E-01 5.00000E-01 1.00000E+00
 -1       223 7.50000E-01 5.00000E-01 1.00000E+00
 -3
    3C                             1                                     1
 -1         1    4    0    1
 -2        10         2        13        95       105        34       134       222        11        12
 -2        96        93       103        33       132       219       106       133       223       220
 -3
    1PSTEP                         1          23           1          
  100CL  101 1000.000000          20                     0    1           1
 -4  DISP        4    1
 -5  D1          1    2    1    0
 -5  D2          1    2    2    0
 -5  D3          1    2    3    0
 -5  ALL         1    2    0    0    1ALL
 -1         2 0.00000E+00 0.00000E+00 0.00000E+00
 -1        10 8.00056E-02 0.00000E+00 0.00000E+00
 -1        11 4.00028E-02 7.53092E-15 0.00000E+00
 -1        12 1.48788E-14-4.00028E-02 0.00000E+00
 -1        13 3.24938E-14-8.00056E-02 0.00000E+00
 -1        33 1.60081E-14 5.00840E-14 1.60024E-01
 -1        34 3.58847E-15 2.15445E-13 3.20047E-01
 -1        93 8.00056E-02-4.00028E-02 0.00000E+00
 -1        95 8.00056E-02-8.00056E-02 0.00000E+00
 -1        96 4.00028E-02-8.00056E-02 0.00000E+00
 -1       103 8.00056E-02 5.22143E-14 1.60024E-01
 -1       105 8.00056E-02 2.07076E-13 3.20047E-01
 -1       106 4.00028E-02 2.19736E-13 3.20047E-01
 -1       132 4.79349E-14-8.00056E-02 1.60024E-01
 -1       133 2.44383E-14-4.00028E-02 3.20047E-01
 -1       134 4.75871E-14-8.00056E-02 3.20047E-01
 -1       219 8.00056E-02-8.00056E-02 1.60024E-01
 -1       220 8.00056E-02-4.00028E-02 3.20047E-01
 -1       222 8.00056E-02-8.00056E-02 3.20047E-01
 -1       223 4.00028E-02-8.00056E-02 3.20047E-01
 -3
    1PSTEP                         2          23           1          
  100CL  101 1000.000000          20                     0    1           1
 -4  STRESS      6    1
 -5  SXX         1    4    1    1
 -5  SYY         1    4    2    2
 -5  SZZ         1    4    3    3
 -5  SXY         1    4    1    2
 -5  SYZ         1    4    2    3
 -5  SZX         1    4    3    1
 -1         2 2.51535E-11 3.41380E-11 1.99992E+01-1.59582E-12-2.88925E-12 1.60494E-12
 -1        10-5.28525E-12-6.87249E-12 1.99992E+01 3.30033E-12-1.55305E-12 3.31459E-13
 -1        11 2.23029E-11 1.74155E-11 2.00010E+01-5.84786E-13-1.81850E-12 4.06740E-13
 -1        12-4.79408E-12-8.09995E-12 2.00010E+01 2.40003E-12-2.86475E-12 1.59029E-12
 -1        13-1.81550E-10-2.01215E-10 1.99992E+01-2.46708E-12-2.11010E-12 2.23122E-12
 -1        33-4.89203E-11-4.89874E-11 2.00010E+01 3.71985E-14 3.40938E-12-1.30501E-12
 -1        34 2.94696E-12 8.69251E-12 1.99992E+01 6.95800E-12 4.40845E-13 2.45020E-13
 -1        93 2.88910E-11 4.14434E-11 2.00010E+01 1.87184E-12-7.71531E-13-1.29758E-12
 -1        95 2.42060E-10 2.38252E-10 1.99992E+01 2.24645E-12-2.60892E-13-3.40034E-12
 -1        96-4.46563E-11-5.13308E-11 2.00010E+01-3.24095E-13-1.39469E-12 9.23896E-13
 -1       103-3.51154E-11-3.51829E-11 2.00010E+01-7.02963E-13 9.98009E-13-6.19040E-12
 -1       105-2.66113E-10-2.76224E-10 1.99992E+01-6.11915E-12 8.89165E-13-4.40854E-12
 -1       106 1.01255E-10 9.04863E-11 2.00010E+01 1.58687E-12-1.94187E-12 1.66240E-12
 -1       132 7.52998E-11 7.11384E-11 2.00010E+01-1.52961E-13 6.21066E-14-2.60062E-12
 -1       133-1.22650E-10-1.18288E-10 2.00010E+01-3.57457E-13-5.88977E-12 1.51501E-12
 -1       134-4.05270E-11-4.75732E-11 1.99992E+01-1.27047E-12-1.31208E-11-4.85815E-12
 -1       219-4.70431E-11-5.12047E-11 2.00010E+01-3.54425E-13-3.50397E-12 5.18479E-12
 -1       220-1.23059E-11-2.38003E-11 2.00010E+01 7.94839E-13-6.03712E-13 3.52645E-12
 -1       222-3.13071E-11-2.77816E-11 1.99992E+01 4.71041E-12 1.51157E-12 6.42207E-12
 -1       223-7.87247E-11-7.54232E-11 2.00010E+01 5.89341E-13-1.61497E-12-3.97101E-12
 -3
    1PSTEP                         3          23           1          
  100CL  101 1000.000000          20                     0    1           1
 -4  PE          1    1
 -5  PE          1    1    0    0
 -1         2 3.19987E-01
 -1        10 3.19987E-01
 -1        11 3.20016E-01
 -1        12 3.20016E-01
 -1        13 3.19987E-01
 -1        33 3.20016E-01
 -1        34 3.19987E-01
 -1        93 3.20016E-01
 -1        95 3.19987E-01
 -1        96 3.20016E-01
 -1       103 3.20016E-01
 -1       105 3.19987E-01
 -1       106 3.20016E-01
 -1       132 3.20016E-01
 -1       133 3.20016E-01
 -1       134 3.19987E-01
 -1       219 3.20016E-01
 -1       220 3.20016E-01
 -1       222 3.19987E-01
 -1       223 3.20016E-01
 -3
    1PSTEP                         4          23           1          
  100CL  101 1000.000000          20                     0    1           1
 -4  ERROR       1    1
 -5  STR(%)      1    1    0    0
 -1         2 5.33461E-11
 -1        10 5.33461E-11
 -1        11 5.33461E-11
 -1        12 5.33461E-11
 -1        13 5.33461E-11
 -1        33 5.33461E-11
 -1        34 5.33461E-11
 -1        93 5.33461E-11
 -1        95 5.33461E-11
 -1        96 5.33461E-11
 -1       103 5.33461E-11
 -1       105 5.33461E-11
 -1       106 5.33461E-11
 -1       132 5.33461E-11
 -1       133 5.33461E-11
 -1       134 5.33461E-11
 -1       219 5.33461E-11
 -1       220 5.33461E-11
 -1       222 5.33461E-11
 -1       223 5.33461E-11
 -3
 9999
