
                        S T E P       1


                                INCREMENT     1


 displacements (vx,vy,vz) for set NALL and time  0.1000000E+01

         1 -2.015755E-06  1.685378E-05  5.696331E-04
         2  2.015755E-06  1.685378E-05  5.696331E-04
         3 -1.885497E-06  1.676880E-05 -5.672723E-04
         4  1.885497E-06  1.676880E-05 -5.672723E-04
         5 -2.015755E-06  1.685378E-05 -5.696331E-04
         6  2.015755E-06  1.685378E-05 -5.696331E-04
         7 -1.885497E-06  1.676880E-05  5.672723E-04
         8  1.885497E-06  1.676880E-05  5.672723E-04
         9 -1.089146E-06  1.636709E-05  5.697315E-04
        10 -3.492728E-18  1.546610E-05  5.697919E-04
        11  1.089146E-06  1.636709E-05  5.697315E-04
        12  2.089836E-06  9.297924E-06  2.854799E-04
        13  0.000000E+00  0.000000E+00  0.000000E+00
        14 -2.136657E-06  9.147899E-06 -2.841569E-04
        15 -1.042953E-06  1.610214E-05 -5.675867E-04
        16  1.733748E-18  1.505326E-05 -5.678390E-04
        17  1.042953E-06  1.610214E-05 -5.675867E-04
        18  2.136657E-06  9.147899E-06 -2.841569E-04
        19  0.000000E+00  0.000000E+00  0.000000E+00
        20 -2.089836E-06  9.297924E-06  2.854799E-04
        21 -1.089146E-06  1.636709E-05 -5.697315E-04
        22  3.835570E-18  1.546610E-05 -5.697919E-04
        23  1.089146E-06  1.636709E-05 -5.697315E-04
        24  2.089836E-06  9.297924E-06 -2.854799E-04
        25  0.000000E+00  0.000000E+00  0.000000E+00
        26 -2.136657E-06  9.147899E-06  2.841569E-04
        27 -1.042953E-06  1.610214E-05  5.675867E-04
        28  1.992824E-18  1.505326E-05  5.678390E-04
        29  1.042953E-06  1.610214E-05  5.675867E-04
        30  2.136657E-06  9.147899E-06  2.841569E-04
        31  0.000000E+00  0.000000E+00  0.000000E+00
        32 -2.089836E-06  9.297924E-06 -2.854799E-04
        33  4.466191E-06  5.884991E-04  5.624171E-04
        34  1.076038E-05  1.162046E-03  5.359766E-04
        35  1.644151E-05  1.688731E-03  4.917123E-04
        36  2.120385E-05  2.169817E-03  4.291603E-04
        37  2.635576E-05  2.571230E-03  3.487422E-04
        38  3.214184E-05  2.892165E-03  2.523582E-04
        39  3.859269E-05  3.100143E-03  1.324210E-04
        40  4.123741E-05  3.177133E-03 -1.274383E-17
        41  3.859269E-05  3.100143E-03 -1.324210E-04
        42  3.214184E-05  2.892165E-03 -2.523582E-04
        43  2.635576E-05  2.571230E-03 -3.487422E-04
        44  2.120385E-05  2.169817E-03 -4.291603E-04
        45  1.644151E-05  1.688731E-03 -4.917123E-04
        46  1.076038E-05  1.162046E-03 -5.359766E-04
        47  4.466191E-06  5.884991E-04 -5.624171E-04
        48 -4.466191E-06  5.884991E-04 -5.624171E-04
        49 -1.076038E-05  1.162046E-03 -5.359766E-04
        50 -1.644151E-05  1.688731E-03 -4.917123E-04
        51 -2.120385E-05  2.169817E-03 -4.291603E-04
        52 -2.635576E-05  2.571230E-03 -3.487422E-04
        53 -3.214184E-05  2.892165E-03 -2.523582E-04
        54 -3.859269E-05  3.100143E-03 -1.324210E-04
        55 -4.123741E-05  3.177133E-03 -9.208770E-18
        56 -3.859269E-05  3.100143E-03  1.324210E-04
        57 -3.214184E-05  2.892165E-03  2.523582E-04
        58 -2.635576E-05  2.571230E-03  3.487422E-04
        59 -2.120385E-05  2.169817E-03  4.291603E-04
        60 -1.644151E-05  1.688731E-03  4.917123E-04
        61 -1.076038E-05  1.162046E-03  5.359766E-04
        62 -4.466191E-06  5.884991E-04  5.624171E-04
        63 -4.492780E-06  5.872010E-04 -5.611750E-04
        64 -1.061996E-05  1.161524E-03 -5.346609E-04
        65 -1.712776E-05  1.688254E-03 -4.904648E-04
        66 -2.109937E-05  2.171120E-03 -4.273874E-04
        67 -2.627395E-05  2.568864E-03 -3.472050E-04
        68 -2.817713E-05  2.894802E-03 -2.495302E-04
        69 -4.407481E-05  3.100845E-03 -1.315357E-04
        70 -6.229124E-05  3.239425E-03  2.595921E-18
        71 -4.407481E-05  3.100845E-03  1.315357E-04
        72 -2.817713E-05  2.894802E-03  2.495302E-04
        73 -2.627395E-05  2.568864E-03  3.472050E-04
        74 -2.109937E-05  2.171120E-03  4.273874E-04
        75 -1.712776E-05  1.688254E-03  4.904648E-04
        76 -1.061996E-05  1.161524E-03  5.346609E-04
        77 -4.492780E-06  5.872010E-04  5.611750E-04
        78  4.492780E-06  5.872010E-04 -5.611750E-04
        79  1.061996E-05  1.161524E-03 -5.346609E-04
        80  1.712776E-05  1.688254E-03 -4.904648E-04
        81  2.109937E-05  2.171120E-03 -4.273874E-04
        82  2.627395E-05  2.568864E-03 -3.472050E-04
        83  2.817713E-05  2.894802E-03 -2.495302E-04
        84  4.407481E-05  3.100845E-03 -1.315357E-04
        85  6.229124E-05  3.239425E-03  4.349207E-19
        86  4.407481E-05  3.100845E-03  1.315357E-04
        87  2.817713E-05  2.894802E-03  2.495302E-04
        88  2.627395E-05  2.568864E-03  3.472050E-04
        89  2.109937E-05  2.171120E-03  4.273874E-04
        90  1.712776E-05  1.688254E-03  4.904648E-04
        91  1.061996E-05  1.161524E-03  5.346609E-04
        92  4.492780E-06  5.872010E-04  5.611750E-04
        93 -2.508995E-18  8.415879E-06  2.853874E-04
        94  0.000000E+00  0.000000E+00  0.000000E+00
        95  0.000000E+00  0.000000E+00  0.000000E+00
        96  0.000000E+00  0.000000E+00  0.000000E+00
        97  1.388169E-18  8.154222E-06 -2.841159E-04
        98  1.895156E-18  8.415879E-06 -2.853874E-04
        99  0.000000E+00  0.000000E+00  0.000000E+00
       100  0.000000E+00  0.000000E+00  0.000000E+00
       101  0.000000E+00  0.000000E+00  0.000000E+00
       102  6.015638E-19  8.154222E-06  2.841159E-04
       103  3.641651E-18  5.868276E-04  5.632368E-04
       104 -5.358284E-06  1.157586E-03  5.373965E-04
       105  8.859852E-18  1.155755E-03  5.371205E-04
       106  5.358284E-06  1.157586E-03  5.373965E-04
       107  1.416432E-17  1.680833E-03  4.928757E-04
       108 -1.060160E-05  2.161110E-03  4.301549E-04
       109  1.302734E-17  2.158023E-03  4.300021E-04
       110  1.060160E-05  2.161110E-03  4.301549E-04
       111  1.213060E-17  2.558800E-03  3.501852E-04
       112 -1.608738E-05  2.880071E-03  2.534112E-04
       113  1.071210E-17  2.874987E-03  2.528274E-04
       114  1.608738E-05  2.880071E-03  2.534112E-04
       115  1.558131E-17  3.080606E-03  1.335063E-04
       116 -2.048145E-05  3.157906E-03 -3.918819E-18
       117  1.572873E-17  3.154526E-03  4.149334E-19
       118  2.048145E-05  3.157906E-03 -7.203921E-18
       119  1.820939E-17  3.080606E-03 -1.335063E-04
       120 -1.608738E-05  2.880071E-03 -2.534112E-04
       121  1.923795E-17  2.874987E-03 -2.528274E-04
       122  1.608738E-05  2.880071E-03 -2.534112E-04
       123  1.518333E-17  2.558800E-03 -3.501852E-04
       124 -1.060160E-05  2.161110E-03 -4.301549E-04
       125  1.218461E-17  2.158023E-03 -4.300021E-04
       126  1.060160E-05  2.161110E-03 -4.301549E-04
       127  1.364550E-17  1.680833E-03 -4.928757E-04
       128 -5.358284E-06  1.157586E-03 -5.373965E-04
       129  1.483569E-17  1.155755E-03 -5.371205E-04
       130  5.358284E-06  1.157586E-03 -5.373965E-04
       131  8.569720E-18  5.868276E-04 -5.632368E-04
       132 -1.362786E-07  5.967378E-04  4.806532E-07
       133  5.112443E-06  1.161957E-03  2.645951E-04
       134 -1.149558E-07  1.159642E-03  5.349711E-07
       135 -5.233708E-06  1.161713E-03 -2.633572E-04
       136 -4.619336E-08  1.698521E-03  7.114338E-07
       137  1.050043E-05  2.174787E-03  2.123410E-04
       138 -2.348010E-07  2.174559E-03  5.930541E-07
       139 -1.024279E-05  2.175395E-03 -2.110727E-04
       140 -7.765037E-08  2.588040E-03  9.732435E-07
       141  1.632423E-05  2.901548E-03  1.225532E-04
       142  7.424837E-08  2.902008E-03 -3.923115E-07
       143 -1.600568E-05  2.903200E-03 -1.207321E-04
       144 -6.276547E-07  3.120910E-03  4.034092E-06
       145  1.879647E-05  3.188872E-03 -6.748037E-18
       146 -7.466758E-07  3.193159E-03 -7.487639E-20
       147 -2.315435E-05  3.218750E-03  1.704692E-18
       148 -6.276547E-07  3.120910E-03 -4.034092E-06
       149  1.632423E-05  2.901548E-03 -1.225532E-04
       150  7.424837E-08  2.902008E-03  3.923115E-07
       151 -1.600568E-05  2.903200E-03  1.207321E-04
       152 -7.765037E-08  2.588040E-03 -9.732435E-07
       153  1.050043E-05  2.174787E-03 -2.123410E-04
       154 -2.348010E-07  2.174559E-03 -5.930541E-07
       155 -1.024279E-05  2.175395E-03  2.110727E-04
       156 -4.619336E-08  1.698521E-03 -7.114338E-07
       157  5.112443E-06  1.161957E-03 -2.645951E-04
       158 -1.149558E-07  1.159642E-03 -5.349711E-07
       159 -5.233708E-06  1.161713E-03  2.633572E-04
       160 -1.362786E-07  5.967378E-04 -4.806532E-07
       161  1.280026E-17  5.858505E-04 -5.619711E-04
       162 -5.308888E-06  1.157078E-03 -5.361946E-04
       163  1.698667E-17  1.154818E-03 -5.358928E-04
       164  5.308888E-06  1.157078E-03 -5.361946E-04
       165  1.741315E-17  1.680383E-03 -4.915524E-04
       166 -1.045726E-05  2.160581E-03 -4.284293E-04
       167  2.179529E-17  2.157416E-03 -4.287458E-04
       168  1.045726E-05  2.160581E-03 -4.284293E-04
       169  1.891976E-17  2.558392E-03 -3.480733E-04
       170 -1.449266E-05  2.884134E-03 -2.510309E-04
       171  1.990013E-17  2.873728E-03 -2.498502E-04
       172  1.449266E-05  2.884134E-03 -2.510309E-04
       173  2.154603E-17  3.082277E-03 -1.343675E-04
       174 -2.987839E-05  3.188991E-03  6.529290E-18
       175  1.585608E-17  3.179978E-03  1.075431E-17
       176  2.987839E-05  3.188991E-03  5.398616E-18
       177  2.033268E-17  3.082277E-03  1.343675E-04
       178 -1.449266E-05  2.884134E-03  2.510309E-04
       179  1.555736E-17  2.873728E-03  2.498502E-04
       180  1.449266E-05  2.884134E-03  2.510309E-04
       181  1.644670E-17  2.558392E-03  3.480733E-04
       182 -1.045726E-05  2.160581E-03  4.284293E-04
       183  1.572293E-17  2.157416E-03  4.287458E-04
       184  1.045726E-05  2.160581E-03  4.284293E-04
       185  1.648106E-17  1.680383E-03  4.915524E-04
       186 -5.308888E-06  1.157078E-03  5.361946E-04
       187  1.890248E-17  1.154818E-03  5.358928E-04
       188  5.308888E-06  1.157078E-03  5.361946E-04
       189  1.156503E-17  5.858505E-04  5.619711E-04
       190  1.362786E-07  5.967378E-04  4.806532E-07
       191  5.233708E-06  1.161713E-03 -2.633572E-04
       192  1.149558E-07  1.159642E-03  5.349711E-07
       193 -5.112443E-06  1.161957E-03  2.645951E-04
       194  4.619336E-08  1.698521E-03  7.114338E-07
       195  1.024279E-05  2.175395E-03 -2.110727E-04
       196  2.348010E-07  2.174559E-03  5.930541E-07
       197 -1.050043E-05  2.174787E-03  2.123410E-04
       198  7.765037E-08  2.588040E-03  9.732435E-07
       199  1.600568E-05  2.903200E-03 -1.207321E-04
       200 -7.424837E-08  2.902008E-03 -3.923115E-07
       201 -1.632423E-05  2.901548E-03  1.225532E-04
       202  6.276547E-07  3.120910E-03  4.034092E-06
       203  2.315435E-05  3.218750E-03 -1.782337E-18
       204  7.466758E-07  3.193159E-03  2.836925E-18
       205 -1.879647E-05  3.188872E-03 -2.519723E-18
       206  6.276547E-07  3.120910E-03 -4.034092E-06
       207  1.600568E-05  2.903200E-03  1.207321E-04
       208 -7.424837E-08  2.902008E-03  3.923115E-07
       209 -1.632423E-05  2.901548E-03 -1.225532E-04
       210  7.765037E-08  2.588040E-03 -9.732435E-07
       211  1.024279E-05  2.175395E-03  2.110727E-04
       212  2.348010E-07  2.174559E-03 -5.930541E-07
       213 -1.050043E-05  2.174787E-03 -2.123410E-04
       214  4.619336E-08  1.698521E-03 -7.114338E-07
       215  5.233708E-06  1.161713E-03  2.633572E-04
       216  1.149558E-07  1.159642E-03 -5.349711E-07
       217 -5.112443E-06  1.161957E-03 -2.645951E-04
       218  1.362786E-07  5.967378E-04 -4.806532E-07
       219  8.259873E-18  5.933451E-04  4.439155E-07
       220  1.187256E-17  1.156751E-03  2.659942E-04
       221  5.078912E-08  1.156124E-03  6.289582E-07
       222  1.631884E-17  1.155461E-03  6.744655E-07
       223 -5.078912E-08  1.156124E-03  6.289582E-07
       224  1.772087E-17  1.156238E-03 -2.648101E-04
       225  1.530066E-17  1.689844E-03  6.424787E-07
       226  1.334157E-17  2.164276E-03  2.133465E-04
       227  1.353666E-07  2.167517E-03  6.320910E-07
       228  1.292003E-17  2.165279E-03  7.630018E-07
       229 -1.353666E-07  2.167517E-03  6.320910E-07
       230  1.654025E-17  2.164109E-03 -2.118938E-04
       231  1.391658E-17  2.573838E-03  8.525038E-07
       232  1.363727E-17  2.886129E-03  1.240075E-04
       233 -9.372142E-08  2.890236E-03  1.710095E-07
       234  1.564628E-17  2.888616E-03  5.877168E-07
       235  9.372142E-08  2.890236E-03  1.710095E-07
       236  1.674576E-17  2.885201E-03 -1.218072E-04
       237  1.588763E-17  3.099354E-03  2.724365E-06
       238  1.716217E-17  3.168679E-03 -1.573427E-18
       239  5.245773E-08  3.181978E-03 -3.474500E-19
       240  1.720470E-17  3.173518E-03 -2.996994E-18
       241 -5.245773E-08  3.181978E-03 -1.323051E-18
       242  1.700115E-17  3.181445E-03  4.413468E-18
       243  1.742705E-17  3.099354E-03 -2.724365E-06
       244  1.760625E-17  2.886129E-03 -1.240075E-04
       245 -9.372142E-08  2.890236E-03 -1.710095E-07
       246  1.860998E-17  2.888616E-03 -5.877168E-07
       247  9.372142E-08  2.890236E-03 -1.710095E-07
       248  1.769371E-17  2.885201E-03  1.218072E-04
       249  1.568290E-17  2.573838E-03 -8.525038E-07
       250  1.619576E-17  2.164276E-03 -2.133465E-04
       251  1.353666E-07  2.167517E-03 -6.320910E-07
       252  1.542166E-17  2.165279E-03 -7.630018E-07
       253 -1.353666E-07  2.167517E-03 -6.320910E-07
       254  1.545957E-17  2.164109E-03  2.118938E-04
       255  1.880225E-17  1.689844E-03 -6.424787E-07
       256  1.869101E-17  1.156751E-03 -2.659942E-04
       257  5.078912E-08  1.156124E-03 -6.289582E-07
       258  2.093512E-17  1.155461E-03 -6.744655E-07
       259 -5.078912E-08  1.156124E-03 -6.289582E-07
       260  1.995497E-17  1.156238E-03  2.648101E-04
       261  9.253741E-18  5.933451E-04 -4.439155E-07

 stresses (elem, integ.pnt.,sxx,syy,szz,sxy,sxz,syz) for set EALL and time  0.1000000E+01

         1   1  1.951553E-01 -5.266434E-01 -2.253870E+00 -1.504075E-01 -3.346616E-02  1.186695E+00
         1   2  2.817961E-01 -7.160628E-01 -2.080840E+00 -1.091143E-01 -3.319009E-02  1.083318E+00
         1   3 -8.097532E-01 -2.386067E+00 -1.703051E+00  2.133649E-01  4.257472E-02  3.900217E+00
         1   4 -7.787640E-01 -2.458961E+00 -1.615312E+00 -1.332235E-02  7.688859E-04  3.589865E+00
         1   5  7.597607E-02  1.055582E+00 -9.241183E+00 -3.964378E-02 -2.103603E-01  2.248026E+00
         1   6  1.046467E-01  1.008184E+00 -9.104840E+00  1.137110E-02 -1.631834E-01  1.905655E+00
         1   7  2.135438E-01  1.063183E+00 -2.496273E+00 -6.383816E-02  3.367392E-02  3.051540E+00
         1   8  2.535679E-01  1.037658E+00 -2.364047E+00  1.672314E-02  9.345977E-03  2.702660E+00
         2   1  2.817961E-01 -7.160628E-01 -2.080840E+00  1.091143E-01  3.319009E-02  1.083318E+00
         2   2  1.951553E-01 -5.266434E-01 -2.253870E+00  1.504075E-01  3.346616E-02  1.186695E+00
         2   3 -7.787640E-01 -2.458961E+00 -1.615312E+00  1.332235E-02 -7.688859E-04  3.589865E+00
         2   4 -8.097532E-01 -2.386067E+00 -1.703051E+00 -2.133649E-01 -4.257472E-02  3.900217E+00
         2   5  1.046467E-01  1.008184E+00 -9.104840E+00 -1.137110E-02  1.631834E-01  1.905655E+00
         2   6  7.597607E-02  1.055582E+00 -9.241183E+00  3.964378E-02  2.103603E-01  2.248026E+00
         2   7  2.535679E-01  1.037658E+00 -2.364047E+00 -1.672314E-02 -9.345977E-03  2.702660E+00
         2   8  2.135438E-01  1.063183E+00 -2.496273E+00  6.383816E-02 -3.367392E-02  3.051540E+00
         3   1  9.230282E-01  2.472097E+00  2.248492E+00  2.334945E-01 -1.659755E-02  4.111789E+00
         3   2  8.999501E-01  2.588220E+00  2.155926E+00 -4.489625E-03 -3.477120E-04  3.824588E+00
         3   3 -2.317814E-01  5.203581E-01  2.206676E+00 -1.732535E-01  3.808666E-02  1.190595E+00
         3   4 -3.145943E-01  7.446536E-01  2.106263E+00 -1.132680E-01  3.244447E-02  1.112688E+00
         3   5 -3.018697E-01 -1.179612E+00  2.716789E+00 -6.416390E-02 -4.149311E-02  3.096878E+00
         3   6 -3.102555E-01 -1.133015E+00  2.643145E+00  6.114276E-04 -1.918203E-02  2.704355E+00
         3   7 -1.175678E-02 -1.060946E+00  9.545394E+00 -4.531884E-02  1.683960E-01  2.342915E+00
         3   8 -7.661653E-02 -1.002615E+00  9.367308E+00 -4.858287E-02  1.671063E-01  1.948219E+00
         4   1  8.999501E-01  2.588220E+00  2.155926E+00  4.489625E-03  3.477120E-04  3.824588E+00
         4   2  9.230282E-01  2.472097E+00  2.248492E+00 -2.334945E-01  1.659755E-02  4.111789E+00
         4   3 -3.145943E-01  7.446536E-01  2.106263E+00  1.132680E-01 -3.244447E-02  1.112688E+00
         4   4 -2.317814E-01  5.203581E-01  2.206676E+00  1.732535E-01 -3.808666E-02  1.190595E+00
         4   5 -3.102555E-01 -1.133015E+00  2.643145E+00 -6.114276E-04  1.918203E-02  2.704355E+00
         4   6 -3.018697E-01 -1.179612E+00  2.716789E+00  6.416390E-02  4.149311E-02  3.096878E+00
         4   7 -7.661653E-02 -1.002615E+00  9.367308E+00  4.858287E-02 -1.671063E-01  1.948219E+00
         4   8 -1.175678E-02 -1.060946E+00  9.545394E+00  4.531884E-02 -1.683960E-01  2.342915E+00
         5   1 -1.224500E-01 -7.379460E-01 -1.420170E+01  6.141132E-02 -1.315300E-01  8.752182E-01
         5   2 -1.439727E-01 -7.026066E-01 -1.422217E+01  1.089556E-03 -1.647016E-01  7.151540E-01
         5   3 -6.978996E-02 -3.275195E-01 -3.628584E+00 -2.171341E-02  6.834883E-03  4.535201E+00
         5   4 -1.044053E-01 -3.463465E-01 -3.708842E+00 -1.135257E-02  4.890197E-03  3.890990E+00
         5   5  4.524557E-02 -9.049740E-02 -2.102700E+01 -6.767522E-04 -1.048222E-01  1.866129E+00
         5   6  4.540487E-02 -7.998494E-04 -2.107349E+01 -5.309107E-03 -1.219839E-01  1.586040E+00
         5   7  1.003432E-01  1.658976E-01 -5.412188E+00  7.941041E-02  2.056640E-02  3.350531E+00
         5   8  1.219989E-01  2.609566E-01 -5.363025E+00 -4.007292E-02  2.505809E-02  3.034911E+00
         6   1 -1.439727E-01 -7.026066E-01 -1.422217E+01 -1.089556E-03  1.647016E-01  7.151540E-01
         6   2 -1.224500E-01 -7.379460E-01 -1.420170E+01 -6.141132E-02  1.315300E-01  8.752182E-01
         6   3 -1.044053E-01 -3.463465E-01 -3.708842E+00  1.135257E-02 -4.890197E-03  3.890990E+00
         6   4 -6.978996E-02 -3.275195E-01 -3.628584E+00  2.171341E-02 -6.834883E-03  4.535201E+00
         6   5  4.540487E-02 -7.998493E-04 -2.107349E+01  5.309107E-03  1.219839E-01  1.586040E+00
         6   6  4.524557E-02 -9.049740E-02 -2.102700E+01  6.767522E-04  1.048222E-01  1.866129E+00
         6   7  1.219989E-01  2.609566E-01 -5.363025E+00  4.007292E-02 -2.505809E-02  3.034911E+00
         6   8  1.003432E-01  1.658976E-01 -5.412188E+00 -7.941041E-02 -2.056640E-02  3.350531E+00
         7   1  1.144177E-01  3.839778E-01  3.940272E+00  7.036296E-03 -2.362308E-02  4.506347E+00
         7   2  1.341216E-01  3.887741E-01  3.965889E+00 -1.926112E-03 -1.826905E-02  3.876462E+00
         7   3  3.965118E-02  7.140483E-01  1.440969E+01  1.138538E-01  1.936524E-01  8.433575E-01
         7   4  1.100412E-01  7.383625E-01  1.451417E+01  2.388169E-02  1.822051E-01  7.571633E-01
         7   5 -1.426098E-02 -5.193644E-03  5.609944E+00 -6.936517E-02 -1.767703E-02  3.384103E+00
         7   6 -6.088899E-02 -2.115182E-01  5.626259E+00 -3.283601E-02 -2.836102E-03  3.054923E+00
         7   7  2.406576E-02  3.149502E-01  2.142587E+01 -1.676712E-01  3.155941E-02  2.104947E+00
         7   8 -4.053683E-02 -1.175333E-01  2.128787E+01  1.183595E-01  4.783518E-02  1.618150E+00
         8   1  1.341216E-01  3.887741E-01  3.965889E+00  1.926112E-03  1.826905E-02  3.876462E+00
         8   2  1.144177E-01  3.839778E-01  3.940272E+00 -7.036296E-03  2.362308E-02  4.506347E+00
         8   3  1.100412E-01  7.383625E-01  1.451417E+01 -2.388169E-02 -1.822051E-01  7.571633E-01
         8   4  3.965118E-02  7.140483E-01  1.440969E+01 -1.138538E-01 -1.936524E-01  8.433575E-01
         8   5 -6.088899E-02 -2.115182E-01  5.626259E+00  3.283601E-02  2.836102E-03  3.054923E+00
         8   6 -1.426098E-02 -5.193644E-03  5.609944E+00  6.936517E-02  1.767703E-02  3.384103E+00
         8   7 -4.053683E-02 -1.175333E-01  2.128787E+01 -1.183595E-01 -4.783518E-02  1.618150E+00
         8   8  2.406576E-02  3.149502E-01  2.142587E+01  1.676712E-01 -3.155941E-02  2.104947E+00
         9   1 -6.764183E-02  1.747320E-01 -2.612916E+01 -1.582583E-02 -1.280321E-01  1.207123E+00
         9   2 -5.591991E-02  8.712694E-02 -2.601542E+01  1.555632E-02 -1.064109E-01  1.059628E+00
         9   3  3.814189E-02  1.952411E-01 -6.835704E+00 -2.996910E-02 -3.683979E-02  4.263327E+00
         9   4 -4.423926E-02  2.401429E-02 -6.931760E+00 -1.939131E-02 -3.144233E-03  3.607780E+00
         9   5  2.315136E-01  3.606300E-01 -3.239718E+01  1.674650E-03 -1.514170E-01  1.596820E+00
         9   6  2.061075E-01  3.076828E-01 -3.254984E+01 -3.483343E-02 -1.701711E-01  1.322767E+00
         9   7 -4.752760E-01 -8.505548E-01 -9.558457E+00 -1.222186E-01  4.215544E-02  3.190792E+00
         9   8 -2.075575E-01 -5.482468E-01 -9.193553E+00  2.629384E-01  2.693256E-02  2.963561E+00
        10   1 -5.591991E-02  8.712694E-02 -2.601542E+01 -1.555632E-02  1.064109E-01  1.059628E+00
        10   2 -6.764183E-02  1.747320E-01 -2.612916E+01  1.582583E-02  1.280321E-01  1.207123E+00
        10   3 -4.423926E-02  2.401429E-02 -6.931760E+00  1.939131E-02  3.144233E-03  3.607780E+00
        10   4  3.814189E-02  1.952411E-01 -6.835704E+00  2.996910E-02  3.683979E-02  4.263327E+00
        10   5  2.061075E-01  3.076828E-01 -3.254984E+01  3.483343E-02  1.701711E-01  1.322767E+00
        10   6  2.315136E-01  3.606300E-01 -3.239718E+01 -1.674650E-03  1.514170E-01  1.596820E+00
        10   7 -2.075575E-01 -5.482468E-01 -9.193553E+00 -2.629384E-01 -2.693256E-02  2.963561E+00
        10   8 -4.752760E-01 -8.505548E-01 -9.558457E+00  1.222186E-01 -4.215544E-02  3.190792E+00
        11   1 -9.233584E-02 -3.518539E-01  7.295250E+00  1.626953E-02  7.402690E-02  4.171529E+00
        11   2  8.476129E-03  1.791422E-02  7.290335E+00  1.459998E-02  8.390820E-03  3.632196E+00
        11   3 -2.208297E-01 -6.201175E-01  2.612564E+01  1.088186E-01  2.878734E-01  9.363343E-01
        11   4 -6.389184E-02 -1.846466E-01  2.628056E+01  1.269270E-01  1.577873E-01  1.122611E+00
        11   5  3.093949E-01  1.353494E+00  9.136225E+00  1.984431E-01 -4.446720E-02  3.736257E+00
        11   6  7.588618E-02  8.368167E-01  9.075877E+00  8.821541E-02  1.235584E-02  3.234989E+00
        11   7  7.876903E-01  5.974708E-01  3.330923E+01  8.187536E-02 -2.326314E-01  2.326387E+00
        11   8  3.496413E-01  6.510020E-01  3.326604E+01 -9.661689E-01  2.360318E-01  1.626911E+00
        12   1  8.476129E-03  1.791422E-02  7.290335E+00 -1.459998E-02 -8.390820E-03  3.632196E+00
        12   2 -9.233584E-02 -3.518539E-01  7.295250E+00 -1.626953E-02 -7.402690E-02  4.171529E+00
        12   3 -6.389184E-02 -1.846466E-01  2.628056E+01 -1.269270E-01 -1.577873E-01  1.122611E+00
        12   4 -2.208297E-01 -6.201175E-01  2.612564E+01 -1.088186E-01 -2.878734E-01  9.363343E-01
        12   5  7.588618E-02  8.368167E-01  9.075877E+00 -8.821541E-02 -1.235584E-02  3.234989E+00
        12   6  3.093949E-01  1.353494E+00  9.136225E+00 -1.984431E-01  4.446720E-02  3.736257E+00
        12   7  3.496413E-01  6.510020E-01  3.326604E+01  9.661689E-01 -2.360318E-01  1.626911E+00
        12   8  7.876903E-01  5.974708E-01  3.330923E+01 -8.187536E-02  2.326314E-01  2.326387E+00
        13   1 -1.758806E-01 -5.566231E-01 -3.879266E+01  8.935986E-03 -2.239450E-01  1.849030E+00
        13   2 -1.432980E-01 -4.984974E-01 -3.881304E+01 -5.437970E-02 -1.819058E-01  1.533101E+00
        13   3  5.506619E-01  4.175643E-01 -8.309858E+00 -3.741295E-02  6.041941E-02  5.036594E+00
        13   4  4.499203E-01  1.524745E-01 -8.931120E+00 -1.060338E-01 -4.785666E-02  4.115258E+00
        13   5 -7.969448E-02  3.111400E-01 -4.422283E+01 -4.234992E-02 -4.082123E-02  1.180087E+00
        13   6 -1.071673E-01  5.424225E-01 -4.437201E+01  3.160239E-01 -2.494378E-02  9.148855E-01
        13   7 -2.423120E-01  2.006821E+00 -1.234720E+01  3.129406E-01 -6.407585E-02  1.510770E+00
        13   8  5.832647E-02  1.639350E+00 -1.218480E+01 -9.427865E-01 -1.109453E-01  1.492554E+00
        14   1 -1.432980E-01 -4.984974E-01 -3.881304E+01  5.437970E-02  1.819058E-01  1.533101E+00
        14   2 -1.758806E-01 -5.566231E-01 -3.879266E+01 -8.935986E-03  2.239450E-01  1.849030E+00
        14   3  4.499203E-01  1.524745E-01 -8.931120E+00  1.060338E-01  4.785666E-02  4.115258E+00
        14   4  5.506619E-01  4.175643E-01 -8.309858E+00  3.741295E-02 -6.041941E-02  5.036594E+00
        14   5 -1.071673E-01  5.424225E-01 -4.437201E+01 -3.160239E-01  2.494378E-02  9.148855E-01
        14   6 -7.969448E-02  3.111400E-01 -4.422283E+01  4.234992E-02  4.082123E-02  1.180087E+00
        14   7  5.832647E-02  1.639350E+00 -1.218480E+01  9.427865E-01  1.109453E-01  1.492554E+00
        14   8 -2.423120E-01  2.006821E+00 -1.234720E+01 -3.129406E-01  6.407585E-02  1.510770E+00
        15   1 -6.085039E-01 -1.974329E+00  1.055035E+01 -1.114027E-01 -2.814069E-01  4.238347E+00
        15   2 -2.833359E-01 -1.197134E+00  1.035407E+01 -3.208916E-02 -1.914225E-01  3.400745E+00
        15   3 -7.676940E-01 -2.180546E+00  3.766224E+01  2.939782E-01  3.860161E-01 -3.036977E-01
        15   4 -6.330353E-01 -1.339835E+00  3.737739E+01  3.569714E-01  1.502337E-01  1.332308E-01
        15   5  1.513649E+00  5.511587E+00  1.197639E+01 -8.372857E-01 -2.056515E-01  2.456827E+00
        15   6  1.291842E+00  2.545498E+00  1.160366E+01 -6.566579E-01 -2.168854E-01  1.732948E+00
        15   7 -8.176657E-01  8.538649E+00  4.566652E+01 -1.677030E+00  9.538105E-01  6.916353E+00
        15   8 -9.654276E-01  3.704720E+00  4.498771E+01  1.963224E+00  8.486843E-02  3.793470E+00
        16   1 -2.833359E-01 -1.197134E+00  1.035407E+01  3.208916E-02  1.914225E-01  3.400745E+00
        16   2 -6.085039E-01 -1.974329E+00  1.055035E+01  1.114027E-01  2.814069E-01  4.238347E+00
        16   3 -6.330353E-01 -1.339835E+00  3.737739E+01 -3.569714E-01 -1.502337E-01  1.332308E-01
        16   4 -7.676940E-01 -2.180546E+00  3.766224E+01 -2.939782E-01 -3.860161E-01 -3.036977E-01
        16   5  1.291842E+00  2.545498E+00  1.160366E+01  6.566579E-01  2.168854E-01  1.732948E+00
        16   6  1.513649E+00  5.511587E+00  1.197639E+01  8.372857E-01  2.056515E-01  2.456827E+00
        16   7 -9.654276E-01  3.704720E+00  4.498771E+01 -1.963224E+00 -8.486843E-02  3.793470E+00
        16   8 -8.176657E-01  8.538649E+00  4.566652E+01  1.677030E+00 -9.538105E-01  6.916353E+00
        17   1 -7.969448E-02  3.111400E-01 -4.422283E+01 -4.234992E-02  4.082123E-02 -1.180087E+00
        17   2 -1.071673E-01  5.424225E-01 -4.437201E+01  3.160239E-01  2.494378E-02 -9.148855E-01
        17   3 -2.423120E-01  2.006821E+00 -1.234720E+01  3.129406E-01  6.407585E-02 -1.510770E+00
        17   4  5.832647E-02  1.639350E+00 -1.218480E+01 -9.427865E-01  1.109453E-01 -1.492554E+00
        17   5 -1.758806E-01 -5.566231E-01 -3.879266E+01  8.935986E-03  2.239450E-01 -1.849030E+00
        17   6 -1.432980E-01 -4.984974E-01 -3.881304E+01 -5.437970E-02  1.819058E-01 -1.533101E+00
        17   7  5.506619E-01  4.175643E-01 -8.309858E+00 -3.741295E-02 -6.041941E-02 -5.036594E+00
        17   8  4.499203E-01  1.524745E-01 -8.931120E+00 -1.060338E-01  4.785666E-02 -4.115258E+00
        18   1 -1.071673E-01  5.424225E-01 -4.437201E+01 -3.160239E-01 -2.494378E-02 -9.148855E-01
        18   2 -7.969448E-02  3.111400E-01 -4.422283E+01  4.234992E-02 -4.082123E-02 -1.180087E+00
        18   3  5.832647E-02  1.639350E+00 -1.218480E+01  9.427865E-01 -1.109453E-01 -1.492554E+00
        18   4 -2.423120E-01  2.006821E+00 -1.234720E+01 -3.129406E-01 -6.407585E-02 -1.510770E+00
        18   5 -1.432980E-01 -4.984974E-01 -3.881304E+01  5.437970E-02 -1.819058E-01 -1.533101E+00
        18   6 -1.758806E-01 -5.566231E-01 -3.879266E+01 -8.935986E-03 -2.239450E-01 -1.849030E+00
        18   7  4.499203E-01  1.524745E-01 -8.931120E+00  1.060338E-01 -4.785666E-02 -4.115258E+00
        18   8  5.506619E-01  4.175643E-01 -8.309858E+00  3.741295E-02  6.041941E-02 -5.036594E+00
        19   1  1.513649E+00  5.511587E+00  1.197639E+01 -8.372857E-01  2.056515E-01 -2.456827E+00
        19   2  1.291842E+00  2.545498E+00  1.160366E+01 -6.566579E-01  2.168854E-01 -1.732948E+00
        19   3 -8.176657E-01  8.538649E+00  4.566652E+01 -1.677030E+00 -9.538105E-01 -6.916353E+00
        19   4 -9.654276E-01  3.704720E+00  4.498771E+01  1.963224E+00 -8.486843E-02 -3.793470E+00
        19   5 -6.085039E-01 -1.974329E+00  1.055035E+01 -1.114027E-01  2.814069E-01 -4.238347E+00
        19   6 -2.833359E-01 -1.197134E+00  1.035407E+01 -3.208916E-02  1.914225E-01 -3.400745E+00
        19   7 -7.676940E-01 -2.180546E+00  3.766224E+01  2.939782E-01 -3.860161E-01  3.036977E-01
        19   8 -6.330353E-01 -1.339835E+00  3.737739E+01  3.569714E-01 -1.502337E-01 -1.332308E-01
        20   1  1.291842E+00  2.545498E+00  1.160366E+01  6.566579E-01 -2.168854E-01 -1.732948E+00
        20   2  1.513649E+00  5.511587E+00  1.197639E+01  8.372857E-01 -2.056515E-01 -2.456827E+00
        20   3 -9.654276E-01  3.704720E+00  4.498771E+01 -1.963224E+00  8.486843E-02 -3.793470E+00
        20   4 -8.176657E-01  8.538649E+00  4.566652E+01  1.677030E+00  9.538105E-01 -6.916353E+00
        20   5 -2.833359E-01 -1.197134E+00  1.035407E+01  3.208916E-02 -1.914225E-01 -3.400745E+00
        20   6 -6.085039E-01 -1.974329E+00  1.055035E+01  1.114027E-01 -2.814069E-01 -4.238347E+00
        20   7 -6.330353E-01 -1.339835E+00  3.737739E+01 -3.569714E-01  1.502337E-01 -1.332308E-01
        20   8 -7.676940E-01 -2.180546E+00  3.766224E+01 -2.939782E-01  3.860161E-01  3.036977E-01