
                        S T E P       1


                                INCREMENT    10


 displacements (vx,vy,vz) for set N1 and time  0.1000000E-04

       100  3.311293E-18 -1.476025E-02  6.455765E-19
