
                        S T E P       1


                                INCREMENT     1


 displacements (vx,vy,vz) for set NALL and time  0.1000000E+01

         1  0.000000E+00  0.000000E+00  0.000000E+00
         2  0.000000E+00  0.000000E+00  0.000000E+00
         3  0.000000E+00  0.000000E+00  0.000000E+00
         4  0.000000E+00  0.000000E+00  0.000000E+00
         5 -3.366245E-05  8.722540E-02  8.142272E-03
         6  3.366245E-05  8.722540E-02  8.142272E-03
         7 -3.366245E-05  8.722540E-02 -8.142272E-03
         8  3.366245E-05  8.722540E-02 -8.142272E-03
         9  0.000000E+00  0.000000E+00  0.000000E+00
        10  0.000000E+00  0.000000E+00  0.000000E+00
        11  0.000000E+00  0.000000E+00  0.000000E+00
        12  0.000000E+00  0.000000E+00  0.000000E+00
        13  0.000000E+00  0.000000E+00  0.000000E+00
        14  0.000000E+00  0.000000E+00  0.000000E+00
        15  0.000000E+00  0.000000E+00  0.000000E+00
        16  0.000000E+00  0.000000E+00  0.000000E+00
        17  0.000000E+00  0.000000E+00  0.000000E+00
        18  0.000000E+00  0.000000E+00  0.000000E+00
        19  0.000000E+00  0.000000E+00  0.000000E+00
        20  0.000000E+00  0.000000E+00  0.000000E+00
        21 -1.551963E-05  8.716993E-02  8.141800E-03
        22  4.767874E-14  8.716593E-02  8.134543E-03
        23  1.551963E-05  8.716993E-02  8.141800E-03
        24  5.037215E-06  8.718828E-02  4.053956E-03
        25  5.154948E-14  8.717013E-02 -4.436181E-15
        26 -5.037215E-06  8.718828E-02 -4.053956E-03
        27 -1.551963E-05  8.716993E-02 -8.141800E-03
        28  5.555960E-14  8.716593E-02 -8.134543E-03
        29  1.551963E-05  8.716993E-02 -8.141800E-03
        30  5.037215E-06  8.718828E-02 -4.053956E-03
        31  5.158017E-14  8.717013E-02  4.655655E-15
        32 -5.037215E-06  8.718828E-02  4.053956E-03
        33 -2.757857E-04  5.104253E-04  9.015660E-04
        34 -2.575521E-04  1.900184E-03  1.828764E-03
        35 -2.494543E-04  4.237663E-03  2.699289E-03
        36 -2.318412E-04  7.399221E-03  3.505041E-03
        37 -2.121797E-04  1.133807E-02  4.239918E-03
        38 -1.926968E-04  1.598063E-02  4.916343E-03
        39 -1.735100E-04  2.126622E-02  5.525925E-03
        40 -1.542758E-04  2.713066E-02  6.074323E-03
        41 -1.351491E-04  3.350922E-02  6.554473E-03
        42 -1.159723E-04  4.033766E-02  6.973898E-03
        43 -9.586576E-05  4.755314E-02  7.325964E-03
        44 -7.598456E-05  5.509045E-02  7.617475E-03
        45 -5.996901E-05  6.287829E-02  7.840033E-03
        46 -4.320432E-05  7.086221E-02  8.001468E-03
        47 -8.650185E-06  7.899194E-02  8.097271E-03
        48  8.650185E-06  7.899194E-02  8.097271E-03
        49  4.320432E-05  7.086221E-02  8.001468E-03
        50  5.996901E-05  6.287829E-02  7.840033E-03
        51  7.598456E-05  5.509045E-02  7.617475E-03
        52  9.586576E-05  4.755314E-02  7.325964E-03
        53  1.159723E-04  4.033766E-02  6.973898E-03
        54  1.351491E-04  3.350922E-02  6.554473E-03
        55  1.542758E-04  2.713066E-02  6.074323E-03
        56  1.735100E-04  2.126622E-02  5.525925E-03
        57  1.926968E-04  1.598063E-02  4.916343E-03
        58  2.121797E-04  1.133807E-02  4.239918E-03
        59  2.318412E-04  7.399221E-03  3.505041E-03
        60  2.494543E-04  4.237663E-03  2.699289E-03
        61  2.575521E-04  1.900184E-03  1.828764E-03
        62  2.757857E-04  5.104253E-04  9.015660E-04
        63  2.757857E-04  5.104253E-04 -9.015660E-04
        64  2.575521E-04  1.900184E-03 -1.828764E-03
        65  2.494543E-04  4.237663E-03 -2.699289E-03
        66  2.318412E-04  7.399221E-03 -3.505041E-03
        67  2.121797E-04  1.133807E-02 -4.239918E-03
        68  1.926968E-04  1.598063E-02 -4.916343E-03
        69  1.735100E-04  2.126622E-02 -5.525925E-03
        70  1.542758E-04  2.713066E-02 -6.074323E-03
        71  1.351491E-04  3.350922E-02 -6.554473E-03
        72  1.159723E-04  4.033766E-02 -6.973898E-03
        73  9.586576E-05  4.755314E-02 -7.325964E-03
        74  7.598456E-05  5.509045E-02 -7.617475E-03
        75  5.996901E-05  6.287829E-02 -7.840033E-03
        76  4.320432E-05  7.086221E-02 -8.001468E-03
        77  8.650185E-06  7.899194E-02 -8.097271E-03
        78 -2.757857E-04  5.104253E-04 -9.015660E-04
        79 -2.575521E-04  1.900184E-03 -1.828764E-03
        80 -2.494543E-04  4.237663E-03 -2.699289E-03
        81 -2.318412E-04  7.399221E-03 -3.505041E-03
        82 -2.121797E-04  1.133807E-02 -4.239918E-03
        83 -1.926968E-04  1.598063E-02 -4.916343E-03
        84 -1.735100E-04  2.126622E-02 -5.525925E-03
        85 -1.542758E-04  2.713066E-02 -6.074323E-03
        86 -1.351491E-04  3.350922E-02 -6.554473E-03
        87 -1.159723E-04  4.033766E-02 -6.973898E-03
        88 -9.586576E-05  4.755314E-02 -7.325964E-03
        89 -7.598456E-05  5.509045E-02 -7.617475E-03
        90 -5.996901E-05  6.287829E-02 -7.840033E-03
        91 -4.320432E-05  7.086221E-02 -8.001468E-03
        92 -8.650185E-06  7.899194E-02 -8.097271E-03
        93  0.000000E+00  0.000000E+00  0.000000E+00
        94  0.000000E+00  0.000000E+00  0.000000E+00
        95  0.000000E+00  0.000000E+00  0.000000E+00
        96  0.000000E+00  0.000000E+00  0.000000E+00
        97  0.000000E+00  0.000000E+00  0.000000E+00
        98  4.963437E-14  8.715337E-02  4.058430E-03
        99  5.160070E-14  8.715218E-02  2.381656E-15
       100  5.159854E-14  8.714410E-02  9.830771E-17
       101  5.156563E-14  8.715218E-02 -2.174584E-15
       102  5.354095E-14  8.715337E-02 -4.058430E-03
       103 -1.773009E-16  6.354721E-04  8.737229E-04
       104  1.273210E-04  2.009109E-03  1.834798E-03
       105  2.982843E-16  2.034607E-03  1.844734E-03
       106 -1.273210E-04  2.009109E-03  1.834798E-03
       107  1.307548E-15  4.362302E-03  2.704113E-03
       108  1.161473E-04  7.484319E-03  3.509591E-03
       109  2.838821E-15  7.515697E-03  3.508643E-03
       110 -1.161473E-04  7.484319E-03  3.509591E-03
       111  4.831826E-15  1.144388E-02  4.244212E-03
       112  9.628354E-05  1.605353E-02  4.920678E-03
       113  7.241739E-15  1.607716E-02  4.920804E-03
       114 -9.628354E-05  1.605353E-02  4.920678E-03
       115  1.006909E-14  2.135299E-02  5.530280E-03
       116  7.716321E-05  2.718828E-02  6.078620E-03
       117  1.326888E-14  2.720776E-02  6.078602E-03
       118 -7.716321E-05  2.718828E-02  6.078620E-03
       119  1.689562E-14  3.357684E-02  6.558808E-03
       120  5.794361E-05  4.038158E-02  6.978385E-03
       121  2.081051E-14  4.039574E-02  6.978322E-03
       122 -5.794361E-05  4.038158E-02  6.978385E-03
       123  2.489558E-14  4.760088E-02  7.330320E-03
       124  3.813798E-05  5.511713E-02  7.621403E-03
       125  2.921188E-14  5.512765E-02  7.621456E-03
       126 -3.813798E-05  5.511713E-02  7.621403E-03
       127  3.373308E-14  6.290927E-02  7.844263E-03
       128  2.104144E-05  7.088356E-02  8.007003E-03
       129  3.849525E-14  7.088275E-02  8.007168E-03
       130 -2.104144E-05  7.088356E-02  8.007003E-03
       131  4.305107E-14  7.899423E-02  8.101350E-03
       132  4.125118E-16  3.549981E-04 -5.567785E-16
       133 -1.293800E-04  1.798726E-03  9.048814E-04
       134  1.306870E-15  1.784778E-03 -1.168620E-15
       135  1.293800E-04  1.798726E-03 -9.048814E-04
       136  2.779442E-15  4.109478E-03 -1.697783E-15
       137 -1.158173E-04  7.316772E-03  1.741460E-03
       138  4.759275E-15  7.286886E-03 -2.189702E-15
       139  1.158173E-04  7.316772E-03 -1.741460E-03
       140  7.186146E-15  1.123179E-02 -2.629949E-15
       141 -9.639016E-05  1.590768E-02  2.448337E-03
       142  1.005512E-14  1.588430E-02 -3.031006E-15
       143  9.639016E-05  1.590768E-02 -2.448337E-03
       144  1.325632E-14  2.117938E-02 -3.368670E-15
       145 -7.714973E-05  2.707295E-02  3.026900E-03
       146  1.682994E-14  2.705353E-02 -3.678175E-15
       147  7.714973E-05  2.707295E-02 -3.026900E-03
       148  2.064975E-14  3.344185E-02 -3.930673E-15
       149 -5.784965E-05  4.029451E-02  3.476880E-03
       150  2.473771E-14  4.028007E-02 -4.111955E-15
       151  5.784965E-05  4.029451E-02 -3.476880E-03
       152  2.896658E-14  4.750447E-02 -4.255521E-15
       153 -3.861868E-05  5.506007E-02  3.798353E-03
       154  3.338649E-14  5.505014E-02 -4.352638E-15
       155  3.861868E-05  5.506007E-02 -3.798353E-03
       156  3.784902E-14  6.285159E-02 -4.464961E-15
       157 -1.894907E-05  7.085120E-02  3.991406E-03
       158  4.248078E-14  7.084516E-02 -4.491741E-15
       159  1.894907E-05  7.085120E-02 -3.991406E-03
       160  4.703213E-14  7.897753E-02 -4.511563E-15
       161  6.460490E-16  6.354721E-04 -8.737229E-04
       162  1.273210E-04  2.009109E-03 -1.834798E-03
       163  2.000976E-15  2.034607E-03 -1.844734E-03
       164 -1.273210E-04  2.009109E-03 -1.834798E-03
       165  3.937927E-15  4.362302E-03 -2.704113E-03
       166  1.161473E-04  7.484319E-03 -3.509591E-03
       167  6.395980E-15  7.515697E-03 -3.508643E-03
       168 -1.161473E-04  7.484319E-03 -3.509591E-03
       169  9.283517E-15  1.144388E-02 -4.244212E-03
       170  9.628354E-05  1.605353E-02 -4.920678E-03
       171  1.259513E-14  1.607716E-02 -4.920804E-03
       172 -9.628354E-05  1.605353E-02 -4.920678E-03
       173  1.624352E-14  2.135299E-02 -5.530280E-03
       174  7.716321E-05  2.718828E-02 -6.078620E-03
       175  2.020249E-14  2.720776E-02 -6.078602E-03
       176 -7.716321E-05  2.718828E-02 -6.078620E-03
       177  2.428007E-14  3.357684E-02 -6.558808E-03
       178  5.794361E-05  4.038158E-02 -6.978385E-03
       179  2.857090E-14  4.039574E-02 -6.978322E-03
       180 -5.794361E-05  4.038158E-02 -6.978385E-03
       181  3.295835E-14  4.760088E-02 -7.330320E-03
       182  3.813798E-05  5.511713E-02 -7.621403E-03
       183  3.740758E-14  5.512765E-02 -7.621456E-03
       184 -3.813798E-05  5.511713E-02 -7.621403E-03
       185  4.189010E-14  6.290927E-02 -7.844263E-03
       186  2.104144E-05  7.088356E-02 -8.007003E-03
       187  4.641375E-14  7.088275E-02 -8.007168E-03
       188 -2.104144E-05  7.088356E-02 -8.007003E-03
       189  5.102646E-14  7.899423E-02 -8.101350E-03
       190  4.110314E-16  3.549981E-04  5.545420E-16
       191 -1.293800E-04  1.798726E-03 -9.048814E-04
       192  1.303509E-15  1.784778E-03  1.165694E-15
       193  1.293800E-04  1.798726E-03  9.048814E-04
       194  2.776506E-15  4.109478E-03  1.695204E-15
       195 -1.158173E-04  7.316772E-03 -1.741460E-03
       196  4.750998E-15  7.286886E-03  2.174054E-15
       197  1.158173E-04  7.316772E-03  1.741460E-03
       198  7.178828E-15  1.123179E-02  2.610937E-15
       199 -9.639016E-05  1.590768E-02 -2.448337E-03
       200  1.000324E-14  1.588430E-02  2.992195E-15
       201  9.639016E-05  1.590768E-02  2.448337E-03
       202  1.324479E-14  2.117938E-02  3.348491E-15
       203 -7.714973E-05  2.707295E-02 -3.026900E-03
       204  1.677022E-14  2.705353E-02  3.657448E-15
       205  7.714973E-05  2.707295E-02  3.026900E-03
       206  2.066922E-14  3.344185E-02  3.914017E-15
       207 -5.784965E-05  4.029451E-02 -3.476880E-03
       208  2.474629E-14  4.028007E-02  4.139267E-15
       209  5.784965E-05  4.029451E-02  3.476880E-03
       210  2.900728E-14  4.750447E-02  4.291652E-15
       211 -3.861868E-05  5.506007E-02 -3.798353E-03
       212  3.337420E-14  5.505014E-02  4.448471E-15
       213  3.861868E-05  5.506007E-02  3.798353E-03
       214  3.783952E-14  6.285159E-02  4.593737E-15
       215 -1.894907E-05  7.085120E-02 -3.991406E-03
       216  4.239911E-14  7.084516E-02  4.668304E-15
       217  1.894907E-05  7.085120E-02  3.991406E-03
       218  4.703253E-14  7.897753E-02  4.663440E-15
       219  3.127198E-16  4.790029E-04 -8.360309E-19
       220  7.917525E-16  1.927591E-03  9.101551E-04
       221  1.238114E-15  1.889957E-03  5.731489E-16
       222  1.229661E-15  1.911123E-03 -1.377276E-18
       223  1.240761E-15  1.889957E-03 -5.748237E-16
       224  1.641292E-15  1.927591E-03 -9.101551E-04
       225  2.698688E-15  4.234398E-03 -3.171291E-18
       226  3.777709E-15  7.432819E-03  1.745939E-03
       227  4.702158E-15  7.370935E-03  1.080369E-15
       228  4.683672E-15  7.401638E-03 -6.386146E-19
       229  4.706901E-15  7.370935E-03 -1.089078E-15
       230  5.555708E-15  7.432819E-03 -1.745939E-03
       231  7.120355E-15  1.133802E-02 -1.319455E-17
       232  8.616345E-15  1.600397E-02  2.452216E-03
       233  9.966149E-15  1.595715E-02  1.488311E-15
       234  9.970052E-15  1.598061E-02 -9.489086E-18
       235  1.000390E-14  1.595715E-02 -1.513586E-15
       236  1.129628E-14  1.600397E-02 -2.452216E-03
       237  1.319891E-14  2.126614E-02 -1.483056E-17
       238  1.503507E-14  2.715013E-02  3.030886E-03
       239  1.673791E-14  2.711121E-02  1.811234E-15
       240  1.675670E-14  2.713065E-02 -1.073360E-17
       241  1.679774E-14  2.711121E-02 -1.841219E-15
       242  1.848951E-14  2.715013E-02 -3.030886E-03
       243  2.063080E-14  3.350940E-02 -3.035766E-18
       244  2.276282E-14  4.035237E-02  3.480859E-03
       245  2.472521E-14  4.032361E-02  2.058466E-15
       246  2.470734E-14  4.033801E-02 -3.825148E-18
       247  2.470333E-14  4.032361E-02 -2.052449E-15
       248  2.663491E-14  4.035237E-02 -3.480859E-03
       249  2.896294E-14  4.755246E-02  1.173649E-17
       250  3.127880E-14  5.509837E-02  3.802346E-03
       251  3.334919E-14  5.507866E-02  2.240350E-15
       252  3.333629E-14  5.508845E-02  3.436780E-17
       253  3.336567E-14  5.507866E-02 -2.152121E-15
       254  3.538257E-14  5.509837E-02 -3.802346E-03
       255  3.783866E-14  6.288120E-02  7.524363E-17
       256  4.045522E-14  7.086911E-02  3.995341E-03
       257  4.241833E-14  7.086077E-02  2.350139E-15
       258  4.241906E-14  7.086458E-02  5.946171E-17
       259  4.244174E-14  7.086077E-02 -2.210932E-15
       260  4.442280E-14  7.086911E-02 -3.995341E-03
       261  4.703703E-14  7.898187E-02  9.599235E-17

 forces (fx,fy,fz) for set NALL and time  0.1000000E+01

         1 -2.849676E+00 -4.840705E+00  5.032534E-01
         2  2.849676E+00 -4.840705E+00  5.032534E-01
         3 -2.849676E+00 -4.840705E+00 -5.032534E-01
         4  2.849676E+00 -4.840705E+00 -5.032534E-01
         5 -2.104675E-13  1.000000E+00  2.172584E-13
         6 -2.991208E-14  1.000000E+00  8.497283E-14
         7 -9.083012E-13  1.000000E+00 -4.292261E-13
         8 -4.453867E-13  1.000000E+00  1.765172E-13
         9 -4.245834E-02 -6.257324E+00 -2.208254E+01
        10 -3.534339E-12 -9.754624E+00  1.847664E+00
        11  4.245834E-02 -6.257324E+00 -2.208254E+01
        12  5.492589E+00  8.596865E+00 -1.656095E+01
        13 -6.235693E-12 -4.975671E+00 -1.105616E-12
        14 -5.492589E+00  8.596865E+00  1.656095E+01
        15 -4.245834E-02 -6.257324E+00  2.208254E+01
        16 -2.825469E-12 -9.754624E+00 -1.847664E+00
        17  4.245834E-02 -6.257324E+00  2.208254E+01
        18  5.492589E+00  8.596865E+00  1.656095E+01
        19 -6.197832E-12 -4.975671E+00  1.112027E-12
        20 -5.492589E+00  8.596865E+00 -1.656095E+01
        21  2.262718E-12  1.579933E-12 -8.705232E-13
        22  1.314337E-13  1.000000E+00 -1.032893E-12
        23 -1.985388E-12  3.541331E-12  7.499941E-14
        24 -2.534033E-13  1.048703E-12  9.855007E-14
        25 -1.608415E-12  1.000000E+00  1.132713E-12
        26  1.430637E-12  3.005745E-12  1.088140E-13
        27  1.893499E-12 -1.746374E-12  3.631071E-13
        28 -6.725074E-13  1.000000E+00  1.127698E-12
        29 -8.377613E-13  6.551540E-12  4.893377E-13
        30  9.753195E-13 -1.111339E-12 -2.724600E-14
        31 -1.616734E-12  1.000000E+00  2.510504E-13
        32 -2.371388E-13  4.099386E-12  2.739502E-13
        33 -2.062153E-14  6.911138E-15 -4.554690E-14
        34  1.591082E-14  3.468753E-14  2.026365E-13
        35  4.822737E-14 -2.553166E-13 -7.750051E-14
        36  5.822309E-13 -9.065630E-13 -4.288236E-14
        37  2.097961E-13 -6.011372E-13 -1.889461E-14
        38  3.313420E-13 -4.374855E-12 -2.017622E-13
        39  6.827847E-13 -2.454148E-13 -1.392567E-13
        40  6.383471E-13 -5.270749E-13 -2.551674E-13
        41  3.336207E-13  5.039025E-13  9.782453E-14
        42 -6.093201E-13  1.208037E-12  7.064835E-14
        43 -7.744390E-14  3.209412E-13  8.411535E-13
        44  5.203368E-14  3.289521E-13  6.763774E-13
        45  1.221480E-12 -2.133637E-12 -1.196777E-12
        46 -5.733071E-13 -1.379098E-12 -3.828320E-13
        47 -7.139103E-14  8.011231E-13  2.166650E-13
        48 -5.019715E-13  2.628778E-13  5.743088E-13
        49 -1.210683E-12 -4.910667E-12 -2.961581E-13
        50 -2.095753E-13  1.880128E-12 -3.047629E-13
        51 -2.034028E-14  3.459922E-12 -7.383846E-13
        52 -4.209114E-13  3.903503E-12 -8.973503E-13
        53 -9.973392E-13 -9.410415E-13 -7.940358E-13
        54 -4.066954E-13  1.579483E-13 -9.842908E-14
        55 -3.903837E-13  3.882381E-13  2.646312E-13
        56 -5.099859E-13  7.764969E-14 -2.915489E-13
        57  8.437244E-16 -6.577863E-13  1.182084E-13
        58 -4.248319E-13 -5.200415E-13  1.582345E-13
        59 -3.710812E-13 -1.952006E-13  3.304648E-14
        60  1.912150E-14 -1.161189E-13 -2.872702E-14
        61 -9.310616E-15  8.963316E-14  1.124517E-13
        62  2.226607E-14 -2.727029E-14 -1.376503E-14
        63 -1.512679E-14  2.527492E-14  4.440892E-15
        64 -8.712475E-14 -6.149248E-14 -2.420286E-14
        65  1.280278E-13  5.030698E-15 -1.598721E-14
        66  8.273720E-14 -4.804213E-13 -2.133849E-13
        67  1.192414E-13  6.155632E-13  2.220446E-14
        68  1.688289E-13 -1.784066E-12  5.884182E-15
        69  1.035699E-13  2.537554E-13 -1.643130E-14
        70 -2.609844E-13  1.229499E-12 -3.713696E-13
        71 -4.269571E-13 -2.160633E-12  6.128431E-14
        72 -8.914961E-14  1.328739E-12 -3.483325E-13
        73 -5.372959E-14 -1.710215E-12  2.422507E-13
        74 -5.854945E-13  3.016025E-13  8.290590E-13
        75  1.775926E-12  2.137859E-12 -4.907186E-13
        76 -2.613739E-12 -1.216079E-11  1.046524E-13
        77  1.549677E-12 -2.268796E-12 -2.695344E-13
        78  1.152876E-14  3.903041E-14  1.876277E-14
        79  8.228227E-15 -1.305293E-13 -6.267209E-14
        80  4.271843E-14  3.924725E-14  3.408385E-14
        81 -1.290911E-13 -5.352923E-14 -9.048318E-14
        82  1.662003E-13  5.792849E-14  2.424172E-13
        83  2.160332E-13  2.764212E-13 -2.431388E-13
        84 -3.924037E-13  5.293500E-13  6.361578E-14
        85  4.791204E-13 -1.094626E-12 -2.499390E-13
        86 -4.212206E-13 -5.740365E-13  4.206635E-13
        87  1.455562E-12 -3.808824E-12 -4.980183E-13
        88  4.879230E-13  2.216366E-12 -4.415079E-13
        89  1.237646E-12 -5.839083E-12 -3.586992E-13
        90  1.344137E-12 -1.598111E-12  1.145029E-12
        91 -4.261925E-13  2.957106E-12 -3.947155E-13
        92 -1.406563E-12  2.350288E-12 -8.109225E-13
        93  8.406743E-12  1.521382E+01 -2.825630E+01
        94  9.598431E-12  5.468009E+00 -1.793404E-11
        95 -7.006599E-12 -1.089842E+01 -1.360023E-14
        96  9.680771E-12  5.468009E+00  1.803542E-11
        97 -1.797886E-12  1.521382E+01  2.825630E+01
        98  8.704876E-13 -6.780501E-12  7.382050E-13
        99  7.024543E-13  5.719748E-12 -8.462827E-13
       100  1.224130E-12  1.000000E+00  2.071314E-13
       101  7.588031E-13 -5.639313E-13  4.928430E-13
       102 -1.986970E-12  5.975547E-12 -1.196147E-12
       103 -4.375244E-15  4.449999E-14  4.941360E-14
       104  6.761087E-14  1.763745E-13  3.714563E-14
       105 -7.646553E-14  2.392097E-14  3.286954E-13
       106  1.002476E-13 -8.755583E-14  4.146683E-14
       107 -4.219384E-14 -2.253944E-13  1.610760E-13
       108  7.820137E-15 -2.970046E-13  2.909721E-13
       109  3.296848E-13 -5.711724E-13  4.829626E-13
       110 -4.160455E-13 -8.183757E-13  2.464149E-13
       111 -2.019179E-13  4.038250E-13 -6.373894E-14
       112 -1.062836E-12  4.214649E-13  2.743136E-13
       113  6.826421E-13 -2.724123E-13  1.531076E-13
       114 -1.294466E-12 -1.463907E-12  6.306743E-13
       115 -4.706067E-13  1.331908E-12 -2.524300E-13
       116 -6.816020E-13  1.240270E-12  1.571885E-13
       117  7.102441E-13  8.237628E-12 -8.032811E-13
       118 -6.186111E-13 -4.017868E-12  9.480437E-14
       119 -4.761763E-13 -9.497611E-16 -1.560869E-13
       120  1.422736E-12  5.276087E-12 -2.228664E-13
       121  5.814251E-13  8.286993E-12 -5.470130E-13
       122  5.025235E-13  2.097206E-12 -2.639716E-13
       123 -1.186191E-12  3.430405E-12 -2.541457E-13
       124  1.844289E-13 -2.071232E-12  1.075964E-12
       125  6.837690E-13  6.078491E-12  8.317613E-13
       126  1.399893E-12  4.620818E-12  2.644772E-13
       127 -3.078224E-12 -1.015033E-12 -6.209649E-13
       128  9.741451E-13  3.417501E-12 -1.268035E-13
       129  3.030236E-12 -3.286236E-12  3.748734E-13
       130  4.067640E-12 -4.364157E-12  2.668856E-12
       131  2.509057E-13  7.091116E-13  1.428803E-12
       132  2.914682E-14  1.360132E-14  2.076117E-14
       133 -2.064267E-13 -2.836203E-13 -1.807027E-13
       134 -9.998404E-14  4.845456E-13  6.844525E-14
       135  1.108516E-13 -1.313186E-14 -1.026956E-13
       136  1.560852E-13  9.099492E-14 -8.476553E-14
       137  9.693347E-14  1.014487E-12  5.197925E-14
       138  4.110117E-13 -1.531803E-12 -1.990075E-13
       139 -1.547980E-14  6.651363E-13  7.649437E-14
       140 -1.259583E-13  1.159293E-12 -9.586776E-14
       141 -3.404262E-13  3.716909E-12 -6.000755E-14
       142  5.312461E-14 -4.256734E-12  6.727952E-14
       143  6.129060E-14 -2.304294E-12 -7.077672E-14
       144  4.740609E-13  1.754388E-12  7.310819E-14
       145 -1.285351E-12 -5.309801E-12  6.085410E-13
       146 -3.198710E-13  1.623441E-13 -3.111955E-13
       147  3.060265E-13 -5.740269E-12  4.970468E-13
       148 -5.931588E-13 -1.458125E-12  5.247192E-13
       149 -6.233230E-14 -5.988952E-12  9.448345E-14
       150 -6.788615E-13  4.738191E-12  2.727540E-13
       151 -6.798112E-13 -8.433311E-12  7.725764E-13
       152  3.060529E-13  1.451558E-12 -2.801093E-13
       153 -2.878150E-13 -6.799040E-12  8.621871E-13
       154  9.232346E-13 -5.937594E-12  7.200213E-13
       155  8.963224E-13 -1.306918E-12 -3.497341E-13
       156  1.372008E-12  3.775119E-12 -3.114176E-14
       157 -1.262011E-12 -3.544630E-12  3.611096E-13
       158  6.388648E-13 -8.388961E-12  9.962196E-13
       159  2.183893E-12  3.737073E-12 -8.026340E-13
       160  1.382923E-12  1.399233E-12 -2.859367E-12
       161  4.291706E-15 -2.932637E-14 -1.332268E-15
       162  1.246928E-13 -1.256235E-13  2.353673E-14
       163 -1.586008E-13  2.423912E-13 -1.314504E-13
       164  9.255075E-14  1.069457E-14 -2.298162E-14
       165  9.692854E-14 -2.452066E-13  2.162159E-13
       166  7.499882E-14 -9.817997E-13  4.630740E-13
       167  3.850761E-13  1.190012E-13 -3.524958E-13
       168  2.697389E-13 -2.822898E-13  9.814372E-14
       169 -3.487471E-13 -7.808632E-13  2.694511E-13
       170 -5.718646E-13 -1.239476E-12 -1.309508E-13
       171  4.123880E-13 -4.636382E-12  2.629563E-13
       172 -4.336002E-13 -4.367218E-13  3.863576E-13
       173 -2.797597E-13 -7.903955E-13 -2.478573E-13
       174  2.619469E-13 -3.294795E-13 -2.248202E-14
       175  5.377151E-13 -1.576322E-12 -7.449319E-13
       176  4.150493E-13 -2.806635E-12 -9.584000E-13
       177 -1.527786E-12 -2.042849E-12  6.765422E-13
       178  4.815334E-13 -3.042604E-12 -2.112199E-13
       179 -2.648261E-13 -1.957153E-12 -1.428357E-12
       180 -4.056706E-13  1.617035E-12 -3.292921E-13
       181 -1.900715E-14  3.606527E-12 -3.261280E-14
       182  8.262065E-13  3.010529E-12  2.726985E-13
       183  9.310382E-13 -1.383502E-11 -4.106437E-14
       184 -1.827646E-12  2.907017E-12  1.506156E-13
       185 -6.301939E-13  1.550388E-12  2.538247E-13
       186  4.374613E-12 -5.304479E-12 -2.411578E-13
       187 -3.094258E-12 -1.112768E-11  8.056646E-13
       188  3.285046E-13  1.772823E-12 -2.895288E-13
       189 -2.243405E-13 -6.258062E-12  3.004796E-12
       190 -4.942680E-14 -2.540221E-14 -2.146894E-14
       191 -8.641192E-14 -7.244092E-13 -4.977962E-14
       192 -9.588329E-14 -1.756195E-13  6.494805E-15
       193  1.747582E-14 -1.716140E-13 -9.384854E-15
       194  3.394298E-14 -2.192376E-13  1.352529E-13
       195  9.272834E-14 -1.096605E-12  2.478504E-13
       196 -1.340419E-13  6.234898E-13 -1.123407E-13
       197  2.076149E-13 -3.564007E-13  1.954088E-13
       198  1.414166E-15 -5.625795E-14  6.280393E-14
       199  5.366709E-14  2.424855E-13  5.851569E-14
       200 -6.468915E-13  2.792994E-13 -2.980879E-13
       201  6.794791E-13 -3.970413E-12  2.321312E-13
       202 -1.856527E-13 -1.256147E-12 -1.998401E-15
       203  7.365769E-13  7.935689E-12 -2.954581E-14
       204 -8.779976E-13  1.910223E-12 -2.815456E-13
       205  4.903354E-13 -1.364798E-12  1.569621E-13
       206  5.794815E-13 -2.247757E-13 -7.815346E-13
       207 -5.713875E-13  3.859596E-12 -1.566802E-14
       208  6.171494E-13 -1.359375E-12 -1.298857E-13
       209  1.888217E-12 -4.141702E-12 -7.533423E-13
       210  9.767200E-13  1.137034E-12  5.642362E-13
       211 -7.920789E-13 -8.801050E-13  6.345150E-13
       212  2.480983E-12 -9.743454E-13 -1.273365E-12
       213  1.302664E-13  2.377517E-12 -5.784941E-13
       214 -1.857517E-12  1.750672E-12  1.687098E-12
       215  8.257014E-13 -1.755790E-11 -1.192475E-13
       216 -2.396500E-12  1.722279E-12  3.857474E-13
       217  2.982811E-12  3.359153E-13 -6.053590E-13
       218  1.064338E-12 -4.104052E-13  3.653746E-13
       219 -1.188806E-14 -4.020691E-14 -2.706169E-14
       220  2.875664E-14 -6.138354E-13 -1.727212E-13
       221 -4.055377E-14 -6.758968E-13  6.869505E-15
       222 -9.448676E-14  6.734836E-13  3.973211E-14
       223  2.896601E-13 -2.576199E-13  2.314815E-14
       224  1.073248E-13 -1.356224E-12 -1.500050E-13
       225 -4.143671E-13  4.369931E-13 -4.696937E-14
       226 -1.131380E-13  3.599713E-12  1.969345E-13
       227  8.022695E-13 -2.131340E-13 -6.510070E-14
       228 -4.672312E-14  1.194255E-13  1.646044E-13
       229 -5.792300E-13 -8.048033E-15  3.225198E-13
       230  1.129919E-13 -2.632278E-13 -1.448702E-13
       231  3.368521E-13  1.901012E-13 -5.051376E-13
       232 -1.204322E-12  1.969052E-12 -1.278404E-13
       233  7.011834E-13 -2.156862E-12 -2.395237E-13
       234  2.492687E-13 -1.212759E-12  1.641673E-13
       235  6.383855E-13  2.472868E-12 -1.379521E-13
       236  2.510070E-13 -6.974059E-12 -4.662104E-13
       237 -3.466045E-13 -6.581578E-13 -1.996320E-14
       238 -7.168269E-14  6.032241E-12  2.244238E-13
       239 -1.339775E-12 -4.258926E-12 -1.327070E-12
       240 -4.523778E-13  3.818795E-12  1.947192E-13
       241  1.392402E-13 -2.289348E-12  3.340800E-13
       242  4.107372E-13  6.659799E-14  2.670572E-13
       243  1.906809E-12 -1.782768E-12 -8.270259E-13
       244 -2.436837E-12 -1.720256E-11  8.443983E-14
       245 -5.610928E-13 -2.412265E-12 -7.148171E-13
       246  6.665319E-13  4.849420E-12 -1.075889E-12
       247  2.803810E-12  1.466461E-12 -6.406022E-13
       248 -1.370237E-12  8.811723E-12 -6.888587E-14
       249  1.369854E-12 -2.781570E-12  7.675284E-13
       250 -2.034690E-12 -5.779226E-12 -1.314815E-12
       251 -2.224411E-12 -1.524733E-12  1.179298E-12
       252  1.665110E-12 -3.199680E-12 -1.296845E-12
       253  2.896725E-13 -7.022637E-12 -1.001265E-13
       254 -1.080634E-12 -6.475831E-14 -1.462563E-13
       255 -4.760066E-12 -2.637904E-12  1.289224E-12
       256 -2.110126E-12 -3.076988E-11  1.086469E-12
       257 -1.174149E-13 -1.578890E-11 -1.727121E-12
       258 -2.261458E-12 -9.901483E-12 -1.027173E-12
       259  3.823344E-12  4.776225E-12  1.923186E-13
       260 -1.480568E-12 -2.252471E-11 -1.259536E-12
       261  1.404158E-12 -6.933916E-12  1.331494E-12

 reaction forces (rfx,rfy,rfz) for set NALL and time  0.1000000E+01

         1 -2.849676E+00 -4.840705E+00  5.032534E-01
         2  2.849676E+00 -4.840705E+00  5.032534E-01
         3 -2.849676E+00 -4.840705E+00 -5.032534E-01
         4  2.849676E+00 -4.840705E+00 -5.032534E-01
         5  0.000000E+00  0.000000E+00  0.000000E+00
         6  0.000000E+00  0.000000E+00  0.000000E+00
         7  0.000000E+00  0.000000E+00  0.000000E+00
         8  0.000000E+00  0.000000E+00  0.000000E+00
         9 -4.245834E-02 -6.257324E+00 -2.208254E+01
        10 -3.534339E-12 -9.754624E+00  1.847664E+00
        11  4.245834E-02 -6.257324E+00 -2.208254E+01
        12  5.492589E+00  8.596865E+00 -1.656095E+01
        13 -6.235693E-12 -4.975671E+00 -1.105616E-12
        14 -5.492589E+00  8.596865E+00  1.656095E+01
        15 -4.245834E-02 -6.257324E+00  2.208254E+01
        16 -2.825469E-12 -9.754624E+00 -1.847664E+00
        17  4.245834E-02 -6.257324E+00  2.208254E+01
        18  5.492589E+00  8.596865E+00  1.656095E+01
        19 -6.197832E-12 -4.975671E+00  1.112027E-12
        20 -5.492589E+00  8.596865E+00 -1.656095E+01
        21  0.000000E+00  0.000000E+00  0.000000E+00
        22  0.000000E+00  0.000000E+00  0.000000E+00
        23  0.000000E+00  0.000000E+00  0.000000E+00
        24  0.000000E+00  0.000000E+00  0.000000E+00
        25  0.000000E+00  0.000000E+00  0.000000E+00
        26  0.000000E+00  0.000000E+00  0.000000E+00
        27  0.000000E+00  0.000000E+00  0.000000E+00
        28  0.000000E+00  0.000000E+00  0.000000E+00
        29  0.000000E+00  0.000000E+00  0.000000E+00
        30  0.000000E+00  0.000000E+00  0.000000E+00
        31  0.000000E+00  0.000000E+00  0.000000E+00
        32  0.000000E+00  0.000000E+00  0.000000E+00
        33  0.000000E+00  0.000000E+00  0.000000E+00
        34  0.000000E+00  0.000000E+00  0.000000E+00
        35  0.000000E+00  0.000000E+00  0.000000E+00
        36  0.000000E+00  0.000000E+00  0.000000E+00
        37  0.000000E+00  0.000000E+00  0.000000E+00
        38  0.000000E+00  0.000000E+00  0.000000E+00