    1C
    1UModel: beam     Date: 10-Mar-1998                                 
    1UUSER                                                              
    1UDATE              22.february.2024                                
    1UTIME              12:12:31                                        
    1UHOST                                                              
    1UPGM               CalculiX                                        
    1UVERSION           Version DEVELOPMENT                             
    1UCOMPILETIME       Thu 22 Feb 2024 09:48:29 AM CET                    
    1UDIR                                                               
    1UDBN                                                               
    1UMAT    1EL                                                        
    2C                            81                                     1
 -1         1 0.00000E+00 0.00000E+00 0.00000E+00
 -1         2 1.00000E+00 0.00000E+00 0.00000E+00
 -1         3 1.00000E+00 1.50000E+00 0.00000E+00
 -1         4 0.00000E+00 1.50000E+00 0.00000E+00
 -1         5 0.00000E+00 0.00000E+00 8.00000E+00
 -1         6 1.00000E+00 0.00000E+00 8.00000E+00
 -1         7 1.00000E+00 1.50000E+00 8.00000E+00
 -1         8 0.00000E+00 1.50000E+00 8.00000E+00
 -1        10 5.00000E-01 0.00000E+00 0.00000E+00
 -1        13 1.00000E+00 7.50000E-01 0.00000E+00
 -1        16 5.00000E-01 1.50000E+00 0.00000E+00
 -1        19 0.00000E+00 7.50000E-01 0.00000E+00
 -1        22 5.00000E-01 0.00000E+00 8.00000E+00
 -1        25 1.00000E+00 7.50000E-01 8.00000E+00
 -1        28 5.00000E-01 1.50000E+00 8.00000E+00
 -1        31 0.00000E+00 7.50000E-01 8.00000E+00
 -1        34 1.00000E+00 0.00000E+00 1.00000E+00
 -1        36 1.00000E+00 0.00000E+00 2.00000E+00
 -1        38 1.00000E+00 0.00000E+00 3.00000E+00
 -1        40 1.00000E+00 0.00000E+00 4.00000E+00
 -1        42 1.00000E+00 0.00000E+00 5.00000E+00
 -1        44 1.00000E+00 0.00000E+00 6.00000E+00
 -1        46 1.00000E+00 0.00000E+00 7.00000E+00
 -1        49 0.00000E+00 0.00000E+00 7.00000E+00
 -1        51 0.00000E+00 0.00000E+00 6.00000E+00
 -1        53 0.00000E+00 0.00000E+00 5.00000E+00
 -1        55 0.00000E+00 0.00000E+00 4.00000E+00
 -1        57 0.00000E+00 0.00000E+00 3.00000E+00
 -1        59 0.00000E+00 0.00000E+00 2.00000E+00
 -1        61 0.00000E+00 0.00000E+00 1.00000E+00
 -1        64 1.00000E+00 1.50000E+00 1.00000E+00
 -1        66 1.00000E+00 1.50000E+00 2.00000E+00
 -1        68 1.00000E+00 1.50000E+00 3.00000E+00
 -1        70 1.00000E+00 1.50000E+00 4.00000E+00
 -1        72 1.00000E+00 1.50000E+00 5.00000E+00
 -1        74 1.00000E+00 1.50000E+00 6.00000E+00
 -1        76 1.00000E+00 1.50000E+00 7.00000E+00
 -1        79 0.00000E+00 1.50000E+00 1.00000E+00
 -1        81 0.00000E+00 1.50000E+00 2.00000E+00
 -1        83 0.00000E+00 1.50000E+00 3.00000E+00
 -1        85 0.00000E+00 1.50000E+00 4.00000E+00
 -1        87 0.00000E+00 1.50000E+00 5.00000E+00
 -1        89 0.00000E+00 1.50000E+00 6.00000E+00
 -1        91 0.00000E+00 1.50000E+00 7.00000E+00
 -1        95 5.00000E-01 7.50000E-01 0.00000E+00
 -1       100 5.00000E-01 7.50000E-01 8.00000E+00
 -1       105 5.00000E-01 0.00000E+00 1.00000E+00
 -1       109 5.00000E-01 0.00000E+00 2.00000E+00
 -1       113 5.00000E-01 0.00000E+00 3.00000E+00
 -1       117 5.00000E-01 0.00000E+00 4.00000E+00
 -1       121 5.00000E-01 0.00000E+00 5.00000E+00
 -1       125 5.00000E-01 0.00000E+00 6.00000E+00
 -1       129 5.00000E-01 0.00000E+00 7.00000E+00
 -1       134 1.00000E+00 7.50000E-01 1.00000E+00
 -1       138 1.00000E+00 7.50000E-01 2.00000E+00
 -1       142 1.00000E+00 7.50000E-01 3.00000E+00
 -1       146 1.00000E+00 7.50000E-01 4.00000E+00
 -1       150 1.00000E+00 7.50000E-01 5.00000E+00
 -1       154 1.00000E+00 7.50000E-01 6.00000E+00
 -1       158 1.00000E+00 7.50000E-01 7.00000E+00
 -1       163 5.00000E-01 1.50000E+00 1.00000E+00
 -1       167 5.00000E-01 1.50000E+00 2.00000E+00
 -1       171 5.00000E-01 1.50000E+00 3.00000E+00
 -1       175 5.00000E-01 1.50000E+00 4.00000E+00
 -1       179 5.00000E-01 1.50000E+00 5.00000E+00
 -1       183 5.00000E-01 1.50000E+00 6.00000E+00
 -1       187 5.00000E-01 1.50000E+00 7.00000E+00
 -1       192 0.00000E+00 7.50000E-01 1.00000E+00
 -1       196 0.00000E+00 7.50000E-01 2.00000E+00
 -1       200 0.00000E+00 7.50000E-01 3.00000E+00
 -1       204 0.00000E+00 7.50000E-01 4.00000E+00
 -1       208 0.00000E+00 7.50000E-01 5.00000E+00
 -1       212 0.00000E+00 7.50000E-01 6.00000E+00
 -1       216 0.00000E+00 7.50000E-01 7.00000E+00
 -1       222 5.00000E-01 7.50000E-01 1.00000E+00
 -1       228 5.00000E-01 7.50000E-01 2.00000E+00
 -1       234 5.00000E-01 7.50000E-01 3.00000E+00
 -1       240 5.00000E-01 7.50000E-01 4.00000E+00
 -1       246 5.00000E-01 7.50000E-01 5.00000E+00
 -1       252 5.00000E-01 7.50000E-01 6.00000E+00
 -1       258 5.00000E-01 7.50000E-01 7.00000E+00
 -3
    3C                            32                                     1
 -1         1    1    0    1
 -2         1        10        95        19        61       105       222       192
 -1         2    1    0    1
 -2        10         2        13        95       105        34       134       222
 -1         3    1    0    1
 -2        19        95        16         4       192       222       163        79
 -1         4    1    0    1
 -2        95        13         3        16       222       134        64       163
 -1         5    1    0    1
 -2        61       105       222       192        59       109       228       196
 -1         6    1    0    1
 -2       105        34       134       222       109        36       138       228
 -1         7    1    0    1
 -2       192       222       163        79       196       228       167        81
 -1         8    1    0    1
 -2       222       134        64       163       228       138        66       167
 -1         9    1    0    1
 -2        59       109       228       196        57       113       234       200
 -1        10    1    0    1
 -2       109        36       138       228       113        38       142       234
 -1        11    1    0    1
 -2       196       228       167        81       200       234       171        83
 -1        12    1    0    1
 -2       228       138        66       167       234       142        68       171
 -1        13    1    0    1
 -2        57       113       234       200        55       117       240       204
 -1        14    1    0    1
 -2       113        38       142       234       117        40       146       240
 -1        15    1    0    1
 -2       200       234       171        83       204       240       175        85
 -1        16    1    0    1
 -2       234       142        68       171       240       146        70       175
 -1        17    1    0    1
 -2        55       117       240       204        53       121       246       208
 -1        18    1    0    1
 -2       117        40       146       240       121        42       150       246
 -1        19    1    0    1
 -2       204       240       175        85       208       246       179        87
 -1        20    1    0    1
 -2       240       146        70       175       246       150        72       179
 -1        21    1    0    1
 -2        53       121       246       208        51       125       252       212
 -1        22    1    0    1
 -2       121        42       150       246       125        44       154       252
 -1        23    1    0    1
 -2       208       246       179        87       212       252       183        89
 -1        24    1    0    1
 -2       246       150        72       179       252       154        74       183
 -1        25    1    0    1
 -2        51       125       252       212        49       129       258       216
 -1        26    1    0    1
 -2       125        44       154       252       129        46       158       258
 -1        27    1    0    1
 -2       212       252       183        89       216       258       187        91
 -1        28    1    0    1
 -2       252       154        74       183       258       158        76       187
 -1        29    1    0    1
 -2        49       129       258       216         5        22       100        31
 -1        30    1    0    1
 -2       129        46       158       258        22         6        25       100
 -1        31    1    0    1
 -2       216       258       187        91        31       100        28         8
 -1        32    1    0    1
 -2       258       158        76       187       100        25         7        28
 -3
    1PSTEP                         1           1           2          
  100CL  111 0.00000E+00          81                     3   11           1
 -4  NORM        4    1
 -5  NORMX       1    2    1    0
 -5  NORMY       1    2    2    0
 -5  NORMZ       1    2    3    0
 -5  ALL         1    2    0    0    1ALL
 -1         1 0.00000E+00 0.00000E+00 0.00000E+00
 -1         2 0.00000E+00 0.00000E+00 0.00000E+00
 -1         3 0.00000E+00 0.00000E+00 0.00000E+00
 -1         4 0.00000E+00 0.00000E+00 0.00000E+00
 -1         5-5.77350E-01-5.77350E-01 5.77350E-01
 -1         6 5.77350E-01-5.77350E-01 5.77350E-01
 -1         7 5.77350E-01 5.77350E-01 5.77350E-01
 -1         8-5.77350E-01 5.77350E-01 5.77350E-01
 -1        10 0.00000E+00 0.00000E+00 0.00000E+00
 -1        13 0.00000E+00 0.00000E+00 0.00000E+00
 -1        16 0.00000E+00 0.00000E+00 0.00000E+00
 -1        19 0.00000E+00 0.00000E+00 0.00000E+00
 -1        22 0.00000E+00-7.07107E-01 7.07107E-01
 -1        25 7.07107E-01 0.00000E+00 7.07107E-01
 -1        28 0.00000E+00 7.07107E-01 7.07107E-01
 -1        31-7.07107E-01 0.00000E+00 7.07107E-01
 -1        34 7.07107E-01-7.07107E-01 0.00000E+00
 -1        36 7.07107E-01-7.07107E-01 0.00000E+00
 -1        38 7.07107E-01-7.07107E-01 0.00000E+00
 -1        40 7.07107E-01-7.07107E-01 0.00000E+00
 -1        42 7.07107E-01-7.07107E-01 0.00000E+00
 -1        44 7.07107E-01-7.07107E-01 0.00000E+00
 -1        46 7.07107E-01-7.07107E-01 0.00000E+00
 -1        49-7.07107E-01-7.07107E-01 0.00000E+00
 -1        51-7.07107E-01-7.07107E-01 0.00000E+00
 -1        53-7.07107E-01-7.07107E-01 0.00000E+00
 -1        55-7.07107E-01-7.07107E-01 0.00000E+00
 -1        57-7.07107E-01-7.07107E-01 0.00000E+00
 -1        59-7.07107E-01-7.07107E-01 0.00000E+00
 -1        61-7.07107E-01-7.07107E-01 0.00000E+00
 -1        64 7.07107E-01 7.07107E-01 0.00000E+00
 -1        66 7.07107E-01 7.07107E-01 0.00000E+00
 -1        68 7.07107E-01 7.07107E-01 0.00000E+00
 -1        70 7.07107E-01 7.07107E-01 0.00000E+00
 -1        72 7.07107E-01 7.07107E-01 0.00000E+00
 -1        74 7.07107E-01 7.07107E-01 0.00000E+00
 -1        76 7.07107E-01 7.07107E-01 0.00000E+00
 -1        79-7.07107E-01 7.07107E-01 0.00000E+00
 -1        81-7.07107E-01 7.07107E-01 0.00000E+00
 -1        83-7.07107E-01 7.07107E-01 0.00000E+00
 -1        85-7.07107E-01 7.07107E-01 0.00000E+00
 -1        87-7.07107E-01 7.07107E-01 0.00000E+00
 -1        89-7.07107E-01 7.07107E-01 0.00000E+00
 -1        91-7.07107E-01 7.07107E-01 0.00000E+00
 -1        95 0.00000E+00 0.00000E+00 0.00000E+00
 -1       100 0.00000E+00 0.00000E+00 1.00000E+00
 -1       105 0.00000E+00-1.00000E+00 0.00000E+00
 -1       109 0.00000E+00-1.00000E+00 0.00000E+00
 -1       113 0.00000E+00-1.00000E+00 0.00000E+00
 -1       117 0.00000E+00-1.00000E+00 0.00000E+00
 -1       121 0.00000E+00-1.00000E+00 0.00000E+00
 -1       125 0.00000E+00-1.00000E+00 0.00000E+00
 -1       129 0.00000E+00-1.00000E+00 0.00000E+00
 -1       134 1.00000E+00 0.00000E+00 0.00000E+00
 -1       138 1.00000E+00 0.00000E+00 0.00000E+00
 -1       142 1.00000E+00 0.00000E+00 0.00000E+00
 -1       146 1.00000E+00 0.00000E+00 0.00000E+00
 -1       150 1.00000E+00 0.00000E+00 0.00000E+00
 -1       154 1.00000E+00 0.00000E+00 0.00000E+00
 -1       158 1.00000E+00 0.00000E+00 0.00000E+00
 -1       163 0.00000E+00 1.00000E+00 0.00000E+00
 -1       167 0.00000E+00 1.00000E+00 0.00000E+00
 -1       171 0.00000E+00 1.00000E+00 0.00000E+00
 -1       175 0.00000E+00 1.00000E+00 0.00000E+00
 -1       179 0.00000E+00 1.00000E+00 0.00000E+00
 -1       183 0.00000E+00 1.00000E+00 0.00000E+00
 -1       187 0.00000E+00 1.00000E+00 0.00000E+00
 -1       192-1.00000E+00 0.00000E+00 0.00000E+00
 -1       196-1.00000E+00 0.00000E+00 0.00000E+00
 -1       200-1.00000E+00 0.00000E+00 0.00000E+00
 -1       204-1.00000E+00 0.00000E+00 0.00000E+00
 -1       208-1.00000E+00 0.00000E+00 0.00000E+00
 -1       212-1.00000E+00 0.00000E+00 0.00000E+00
 -1       216-1.00000E+00 0.00000E+00 0.00000E+00
 -1       222 0.00000E+00 0.00000E+00 0.00000E+00
 -1       228 0.00000E+00 0.00000E+00 0.00000E+00
 -1       234 0.00000E+00 0.00000E+00 0.00000E+00
 -1       240 0.00000E+00 0.00000E+00 0.00000E+00
 -1       246 0.00000E+00 0.00000E+00 0.00000E+00
 -1       252 0.00000E+00 0.00000E+00 0.00000E+00
 -1       258 0.00000E+00 0.00000E+00 0.00000E+00
 -3
    1PSTEP                         2           1           2          
  100CL  112 15717.62535          81                     3   12           1
 -4  SENFREQ     2    1
 -5  DFDN        1    1    1    0
 -5  DFDNFIL     1    1    2    0
 -1         1 0.00000E+00 0.00000E+00
 -1         2 0.00000E+00 0.00000E+00
 -1         3 0.00000E+00 0.00000E+00
 -1         4 0.00000E+00 0.00000E+00
 -1         5-6.96418E+08-8.94638E-02
 -1         6-6.96423E+08-8.94639E-02
 -1         7-6.96420E+08-8.94638E-02
 -1         8-6.96416E+08-8.94638E-02
 -1        10 0.00000E+00 0.00000E+00
 -1        13 0.00000E+00 0.00000E+00
 -1        16 0.00000E+00 0.00000E+00
 -1        19 0.00000E+00 0.00000E+00
 -1        22-9.36172E+08-1.01416E-01
 -1        25-1.19652E+09-1.13535E-01
 -1        28-9.36175E+08-1.01416E-01
 -1        31-1.19652E+09-1.13535E-01
 -1        34 1.94322E+09 2.08978E-01
 -1        36 1.27126E+09 1.72597E-01
 -1        38 6.65027E+08 6.76074E-02
 -1        40 1.81687E+08 1.68915E-02
 -1        42-2.21959E+08-2.28308E-02
 -1        44-5.95250E+08-6.16392E-02
 -1        46-9.88040E+08-9.94135E-02
 -1        49-9.88042E+08-9.94135E-02
 -1        51-5.95253E+08-6.16393E-02
 -1        53-2.21962E+08-2.28309E-02
 -1        55 1.81686E+08 1.68915E-02
 -1        57 6.65026E+08 6.76074E-02
 -1        59 1.27126E+09 1.72597E-01
 -1        61 1.94322E+09 2.08978E-01
 -1        64 1.94322E+09 2.08978E-01
 -1        66 1.27126E+09 1.72597E-01
 -1        68 6.65027E+08 6.76074E-02
 -1        70 1.81686E+08 1.68915E-02
 -1        72-2.21960E+08-2.28308E-02
 -1        74-5.95249E+08-6.16392E-02
 -1        76-9.88040E+08-9.94135E-02
 -1        79 1.94322E+09 2.08978E-01
 -1        81 1.27126E+09 1.72597E-01
 -1        83 6.65027E+08 6.76074E-02
 -1        85 1.81686E+08 1.68915E-02
 -1        87-2.21960E+08-2.28308E-02
 -1        89-5.95253E+08-6.16392E-02
 -1        91-9.88039E+08-9.94135E-02
 -1        95 0.00000E+00 0.00000E+00
 -1       100-1.21073E+09-1.26696E-01
 -1       105 6.72074E+08 2.28622E-01
 -1       109 4.90464E+08 1.93255E-01
 -1       113 2.18549E+08 7.53991E-02
 -1       117-4.76012E+07 1.85440E-02
 -1       121-3.41688E+08-2.61003E-02
 -1       125-6.90149E+08-6.99336E-02
 -1       129-1.11288E+09-1.12653E-01
 -1       134 4.11753E+09 2.67415E-01
 -1       138 2.59632E+09 2.25610E-01
 -1       142 1.37319E+09 8.81707E-02
 -1       146 4.19684E+08 2.23383E-02
 -1       150-3.41095E+08-2.88981E-02
 -1       154-1.00683E+09-7.87810E-02
 -1       158-1.68077E+09-1.26951E-01
 -1       163 6.72074E+08 2.28622E-01
 -1       167 4.90464E+08 1.93255E-01
 -1       171 2.18549E+08 7.53991E-02
 -1       175-4.76016E+07 1.85440E-02
 -1       179-3.41687E+08-2.61002E-02
 -1       183-6.90146E+08-6.99336E-02
 -1       187-1.11288E+09-1.12653E-01
 -1       192 4.11753E+09 2.67415E-01
 -1       196 2.59632E+09 2.25610E-01
 -1       200 1.37319E+09 8.81707E-02
 -1       204 4.19684E+08 2.23382E-02
 -1       208-3.41099E+08-2.88982E-02
 -1       212-1.00683E+09-7.87810E-02
 -1       216-1.68077E+09-1.26951E-01
 -1       222 0.00000E+00 0.00000E+00
 -1       228 0.00000E+00 0.00000E+00
 -1       234 0.00000E+00 0.00000E+00
 -1       240 0.00000E+00 0.00000E+00
 -1       246 0.00000E+00 0.00000E+00
 -1       252 0.00000E+00 0.00000E+00
 -1       258 0.00000E+00 0.00000E+00
 -3
    1PSTEP                         3           1           2          
  100CL  113 21366.30468          81                     3   13           1
 -4  SENFREQ     2    1
 -5  DFDN        1    1    1    0
 -5  DFDNFIL     1    1    2    0
 -1         1 0.00000E+00 0.00000E+00
 -1         2 0.00000E+00 0.00000E+00
 -1         3 0.00000E+00 0.00000E+00
 -1         4 0.00000E+00 0.00000E+00
 -1         5-1.27608E+09-9.76165E-02
 -1         6-1.27608E+09-9.76165E-02
 -1         7-1.27608E+09-9.76165E-02
 -1         8-1.27608E+09-9.76165E-02
 -1        10 0.00000E+00 0.00000E+00
 -1        13 0.00000E+00 0.00000E+00
 -1        16 0.00000E+00 0.00000E+00
 -1        19 0.00000E+00 0.00000E+00
 -1        22-1.72608E+09-1.10686E-01
 -1        25-2.17201E+09-1.23819E-01
 -1        28-1.72609E+09-1.10686E-01
 -1        31-2.17201E+09-1.23819E-01
 -1        34 3.33202E+09 2.05854E-01
 -1        36 2.26395E+09 1.68302E-01
 -1        38 1.17622E+09 6.59598E-02
 -1        40 3.11152E+08 1.46254E-02
 -1        42-4.19948E+08-2.67181E-02
 -1        44-1.10162E+09-6.81139E-02
 -1        46-1.81790E+09-1.08796E-01
 -1        49-1.81791E+09-1.08796E-01
 -1        51-1.10162E+09-6.81140E-02
 -1        53-4.19948E+08-2.67181E-02
 -1        55 3.11152E+08 1.46253E-02
 -1        57 1.17622E+09 6.59598E-02
 -1        59 2.26395E+09 1.68302E-01
 -1        61 3.33202E+09 2.05854E-01
 -1        64 3.33202E+09 2.05854E-01
 -1        66 2.26395E+09 1.68302E-01
 -1        68 1.17622E+09 6.59598E-02
 -1        70 3.11152E+08 1.46253E-02
 -1        72-4.19949E+08-2.67181E-02
 -1        74-1.10162E+09-6.81139E-02
 -1        76-1.81791E+09-1.08796E-01
 -1        79 3.33202E+09 2.05854E-01
 -1        81 2.26395E+09 1.68302E-01
 -1        83 1.17622E+09 6.59598E-02
 -1        85 3.11152E+08 1.46253E-02
 -1        87-4.19949E+08-2.67181E-02
 -1        89-1.10162E+09-6.81139E-02
 -1        91-1.81791E+09-1.08796E-01
 -1        95 0.00000E+00 0.00000E+00
 -1       100-2.20754E+09-1.38197E-01
 -1       105 5.62393E+09 2.36487E-01
 -1       109 3.52697E+09 1.93567E-01
 -1       113 1.87023E+09 7.58717E-02
 -1       117 6.00476E+08 1.70663E-02
 -1       121-3.95603E+08-3.01122E-02
 -1       125-1.24079E+09-7.72020E-02
 -1       129-2.07032E+09-1.23312E-01
 -1       134 1.66971E+09 2.42033E-01
 -1       138 1.18102E+09 2.09323E-01
 -1       142 5.06474E+08 8.12331E-02
 -1       146-1.76718E+08 1.71787E-02
 -1       150-9.59764E+08-3.46943E-02
 -1       154-1.90532E+09-8.72137E-02
 -1       158-3.05624E+09-1.38865E-01
 -1       163 5.62393E+09 2.36487E-01
 -1       167 3.52697E+09 1.93567E-01
 -1       171 1.87023E+09 7.58717E-02
 -1       175 6.00477E+08 1.70663E-02
 -1       179-3.95602E+08-3.01122E-02
 -1       183-1.24079E+09-7.72020E-02
 -1       187-2.07031E+09-1.23312E-01
 -1       192 1.66971E+09 2.42033E-01
 -1       196 1.18102E+09 2.09323E-01
 -1       200 5.06473E+08 8.12331E-02
 -1       204-1.76718E+08 1.71787E-02
 -1       208-9.59767E+08-3.46943E-02
 -1       212-1.90532E+09-8.72138E-02
 -1       216-3.05625E+09-1.38865E-01
 -1       222 0.00000E+00 0.00000E+00
 -1       228 0.00000E+00 0.00000E+00
 -1       234 0.00000E+00 0.00000E+00
 -1       240 0.00000E+00 0.00000E+00
 -1       246 0.00000E+00 0.00000E+00
 -1       252 0.00000E+00 0.00000E+00
 -1       258 0.00000E+00 0.00000E+00
 -3
    1PSTEP                         4           1           2          
  100CL  114 93946.12418          81                     3   14           1
 -4  SENFREQ     2    1
 -5  DFDN        1    1    1    0
 -5  DFDNFIL     1    1    2    0
 -1         1 0.00000E+00 0.00000E+00
 -1         2 0.00000E+00 0.00000E+00
 -1         3 0.00000E+00 0.00000E+00
 -1         4 0.00000E+00 0.00000E+00
 -1         5-2.76322E+10-9.62313E-02
 -1         6-2.76322E+10-9.62313E-02
 -1         7-2.76322E+10-9.62313E-02
 -1         8-2.76322E+10-9.62313E-02
 -1        10 0.00000E+00 0.00000E+00
 -1        13 0.00000E+00 0.00000E+00
 -1        16 0.00000E+00 0.00000E+00
 -1        19 0.00000E+00 0.00000E+00
 -1        22-3.23560E+10-1.09148E-01
 -1        25-2.53826E+10-1.19113E-01
 -1        28-3.23559E+10-1.09148E-01
 -1        31-2.53826E+10-1.19113E-01
 -1        34 5.06603E+10 1.76874E-01
 -1        36 4.21016E+10 1.59479E-01
 -1        38 2.38875E+10 7.22511E-02
 -1        40 1.92197E+09 8.81307E-03
 -1        42-2.01146E+10-5.05846E-02
 -1        44-3.88492E+10-1.02684E-01
 -1        46-5.14486E+10-1.29713E-01
 -1        49-5.14486E+10-1.29713E-01
 -1        51-3.88492E+10-1.02684E-01
 -1        53-2.01146E+10-5.05846E-02
 -1        55 1.92197E+09 8.81307E-03
 -1        57 2.38875E+10 7.22511E-02
 -1        59 4.21016E+10 1.59479E-01
 -1        61 5.06603E+10 1.76874E-01
 -1        64 5.06603E+10 1.76874E-01
 -1        66 4.21016E+10 1.59479E-01
 -1        68 2.38875E+10 7.22511E-02
 -1        70 1.92197E+09 8.81308E-03
 -1        72-2.01146E+10-5.05846E-02
 -1        74-3.88492E+10-1.02684E-01
 -1        76-5.14485E+10-1.29713E-01
 -1        79 5.06603E+10 1.76874E-01
 -1        81 4.21016E+10 1.59479E-01
 -1        83 2.38875E+10 7.22511E-02
 -1        85 1.92198E+09 8.81308E-03
 -1        87-2.01146E+10-5.05846E-02
 -1        89-3.88492E+10-1.02684E-01
 -1        91-5.14485E+10-1.29713E-01
 -1        95 0.00000E+00 0.00000E+00
 -1       100-1.09491E+10-1.32401E-01
 -1       105 3.70721E+10 1.96370E-01
 -1       109 1.67508E+10 1.78464E-01
 -1       113 2.51156E+09 7.99845E-02
 -1       117-1.60385E+10 8.48916E-03
 -1       121-3.46270E+10-5.84070E-02
 -1       125-5.04333E+10-1.17123E-01
 -1       129-6.12553E+10-1.47347E-01
 -1       134 8.04206E+10 2.21502E-01
 -1       138 8.29626E+10 2.07101E-01
 -1       142 5.74151E+10 9.50304E-02
 -1       146 2.64205E+10 1.42545E-02
 -1       150-4.47013E+09-6.11122E-02
 -1       154-3.07164E+10-1.27279E-01
 -1       158-4.80567E+10-1.60878E-01
 -1       163 3.70721E+10 1.96370E-01
 -1       167 1.67508E+10 1.78464E-01
 -1       171 2.51156E+09 7.99845E-02
 -1       175-1.60385E+10 8.48916E-03
 -1       179-3.46270E+10-5.84070E-02
 -1       183-5.04333E+10-1.17123E-01
 -1       187-6.12552E+10-1.47347E-01
 -1       192 8.04206E+10 2.21502E-01
 -1       196 8.29626E+10 2.07101E-01
 -1       200 5.74151E+10 9.50304E-02
 -1       204 2.64205E+10 1.42545E-02
 -1       208-4.47014E+09-6.11122E-02
 -1       212-3.07164E+10-1.27279E-01
 -1       216-4.80567E+10-1.60878E-01
 -1       222 0.00000E+00 0.00000E+00
 -1       228 0.00000E+00 0.00000E+00
 -1       234 0.00000E+00 0.00000E+00
 -1       240 0.00000E+00 0.00000E+00
 -1       246 0.00000E+00 0.00000E+00
 -1       252 0.00000E+00 0.00000E+00
 -1       258 0.00000E+00 0.00000E+00
 -3
    1PSTEP                         5           1           2          
  100CL  115 94079.45572          81                     3   15           1
 -4  SENFREQ     2    1
 -5  DFDN        1    1    1    0
 -5  DFDNFIL     1    1    2    0
 -1         1 0.00000E+00 0.00000E+00
 -1         2 0.00000E+00 0.00000E+00
 -1         3 0.00000E+00 0.00000E+00
 -1         4 0.00000E+00 0.00000E+00
 -1         5-2.00396E+10-1.66906E-01
 -1         6-2.00396E+10-1.66906E-01
 -1         7-2.00396E+10-1.66906E-01
 -1         8-2.00396E+10-1.66906E-01
 -1        10 0.00000E+00 0.00000E+00
 -1        13 0.00000E+00 0.00000E+00
 -1        16 0.00000E+00 0.00000E+00
 -1        19 0.00000E+00 0.00000E+00
 -1        22-2.71851E+10-1.88678E-01
 -1        25-3.60005E+10-2.10485E-01
 -1        28-2.71851E+10-1.88678E-01
 -1        31-3.60005E+10-2.10485E-01
 -1        34 1.95336E+10 1.24970E-01
 -1        36-3.88458E+09 5.89824E-02
 -1        38 5.73841E+09 3.93867E-02
 -1        40 2.12198E+10 1.18529E-01
 -1        42 2.47069E+10 1.43233E-01
 -1        44 1.38808E+10 7.06150E-02
 -1        46-9.74861E+09-9.23934E-02
 -1        49-9.74861E+09-9.23934E-02
 -1        51 1.38808E+10 7.06150E-02
 -1        53 2.47069E+10 1.43233E-01
 -1        55 2.12198E+10 1.18529E-01
 -1        57 5.73841E+09 3.93867E-02
 -1        59-3.88458E+09 5.89824E-02
 -1        61 1.95336E+10 1.24970E-01
 -1        64 1.95336E+10 1.24970E-01
 -1        66-3.88458E+09 5.89824E-02
 -1        68 5.73841E+09 3.93867E-02
 -1        70 2.12198E+10 1.18529E-01
 -1        72 2.47069E+10 1.43233E-01
 -1        74 1.38808E+10 7.06150E-02
 -1        76-9.74861E+09-9.23934E-02
 -1        79 1.95336E+10 1.24970E-01
 -1        81-3.88458E+09 5.89824E-02
 -1        83 5.73841E+09 3.93867E-02
 -1        85 2.12198E+10 1.18529E-01
 -1        87 2.47069E+10 1.43233E-01
 -1        89 1.38808E+10 7.06150E-02
 -1        91-9.74861E+09-9.23934E-02
 -1        95 0.00000E+00 0.00000E+00
 -1       100-4.10299E+10-2.34832E-01
 -1       105 8.07644E+09 1.35343E-01
 -1       109-5.28780E+09 6.73024E-02
 -1       113-1.23642E+10 4.13473E-02
 -1       117-1.00146E+10 1.28097E-01
 -1       121-6.74915E+08 1.56878E-01
 -1       125 4.56241E+09 7.75143E-02
 -1       129-1.04612E+10-1.05064E-01
 -1       134 3.91389E+10 1.57042E-01
 -1       138-8.81771E+09 8.04092E-02
 -1       142 1.92336E+10 5.47062E-02
 -1       146 5.44611E+10 1.57574E-01
 -1       150 5.69523E+10 1.87785E-01
 -1       154 2.84037E+10 9.13763E-02
 -1       158-1.76601E+10-1.18955E-01
 -1       163 8.07644E+09 1.35343E-01
 -1       167-5.28780E+09 6.73024E-02
 -1       171-1.23642E+10 4.13473E-02
 -1       175-1.00146E+10 1.28097E-01
 -1       179-6.74912E+08 1.56878E-01
 -1       183 4.56241E+09 7.75143E-02
 -1       187-1.04612E+10-1.05064E-01
 -1       192 3.91389E+10 1.57042E-01
 -1       196-8.81771E+09 8.04092E-02
 -1       200 1.92336E+10 5.47062E-02
 -1       204 5.44611E+10 1.57574E-01
 -1       208 5.69523E+10 1.87785E-01
 -1       212 2.84037E+10 9.13763E-02
 -1       216-1.76601E+10-1.18955E-01
 -1       222 0.00000E+00 0.00000E+00
 -1       228 0.00000E+00 0.00000E+00
 -1       234 0.00000E+00 0.00000E+00
 -1       240 0.00000E+00 0.00000E+00
 -1       246 0.00000E+00 0.00000E+00
 -1       252 0.00000E+00 0.00000E+00
 -1       258 0.00000E+00 0.00000E+00
 -3
    1PSTEP                         6           1           2          
  100CL  116 119778.3087          81                     3   16           1
 -4  SENFREQ     2    1
 -5  DFDN        1    1    1    0
 -5  DFDNFIL     1    1    2    0
 -1         1 0.00000E+00 0.00000E+00
 -1         2 0.00000E+00 0.00000E+00
 -1         3 0.00000E+00 0.00000E+00
 -1         4 0.00000E+00 0.00000E+00
 -1         5-3.15085E+10-1.88070E-01
 -1         6-3.15085E+10-1.88070E-01
 -1         7-3.15085E+10-1.88070E-01
 -1         8-3.15085E+10-1.88070E-01
 -1        10 0.00000E+00 0.00000E+00
 -1        13 0.00000E+00 0.00000E+00
 -1        16 0.00000E+00 0.00000E+00
 -1        19 0.00000E+00 0.00000E+00
 -1        22-4.61527E+10-2.13360E-01
 -1        25-5.02564E+10-2.35480E-01
 -1        28-4.61527E+10-2.13360E-01
 -1        31-5.02564E+10-2.35480E-01
 -1        34 2.96644E+10 1.38929E-01
 -1        36-3.80852E+09 6.18655E-02
 -1        38 6.62169E+09 2.29362E-02
 -1        40 2.69326E+10 9.03528E-02
 -1        42 3.28048E+10 1.19167E-01
 -1        44 1.82228E+10 5.30062E-02
 -1        46-1.74458E+10-1.14069E-01
 -1        49-1.74458E+10-1.14069E-01
 -1        51 1.82228E+10 5.30062E-02
 -1        53 3.28048E+10 1.19167E-01
 -1        55 2.69326E+10 9.03528E-02
 -1        57 6.62169E+09 2.29362E-02
 -1        59-3.80852E+09 6.18655E-02
 -1        61 2.96644E+10 1.38929E-01
 -1        64 2.96644E+10 1.38929E-01
 -1        66-3.80852E+09 6.18655E-02
 -1        68 6.62169E+09 2.29362E-02
 -1        70 2.69326E+10 9.03528E-02
 -1        72 3.28048E+10 1.19167E-01
 -1        74 1.82228E+10 5.30062E-02
 -1        76-1.74458E+10-1.14069E-01
 -1        79 2.96644E+10 1.38929E-01
 -1        81-3.80852E+09 6.18655E-02
 -1        83 6.62169E+09 2.29362E-02
 -1        85 2.69326E+10 9.03528E-02
 -1        87 3.28048E+10 1.19167E-01
 -1        89 1.82228E+10 5.30062E-02
 -1        91-1.74458E+10-1.14069E-01
 -1        95 0.00000E+00 0.00000E+00
 -1       100-6.11078E+10-2.63391E-01
 -1       105 4.44126E+10 1.58039E-01
 -1       109-5.90385E+09 7.19527E-02
 -1       113 2.49616E+10 2.89715E-02
 -1       117 6.20526E+10 1.06994E-01
 -1       121 6.24771E+10 1.38664E-01
 -1       125 2.85092E+10 6.10675E-02
 -1       129-2.27743E+10-1.29888E-01
 -1       134 2.35246E+10 1.61674E-01
 -1       138-1.02222E+10 8.06546E-02
 -1       142-3.20647E+10 2.13019E-02
 -1       146-2.93666E+10 1.00456E-01
 -1       150-6.42255E+09 1.39063E-01
 -1       154 8.19692E+09 6.14641E-02
 -1       158-2.47946E+10-1.46097E-01
 -1       163 4.44126E+10 1.58039E-01
 -1       167-5.90385E+09 7.19527E-02
 -1       171 2.49616E+10 2.89715E-02
 -1       175 6.20527E+10 1.06994E-01
 -1       179 6.24771E+10 1.38664E-01
 -1       183 2.85092E+10 6.10675E-02
 -1       187-2.27743E+10-1.29888E-01
 -1       192 2.35246E+10 1.61674E-01
 -1       196-1.02222E+10 8.06546E-02
 -1       200-3.20647E+10 2.13019E-02
 -1       204-2.93666E+10 1.00456E-01
 -1       208-6.42255E+09 1.39063E-01
 -1       212 8.19692E+09 6.14641E-02
 -1       216-2.47946E+10-1.46097E-01
 -1       222 0.00000E+00 0.00000E+00
 -1       228 0.00000E+00 0.00000E+00
 -1       234 0.00000E+00 0.00000E+00
 -1       240 0.00000E+00 0.00000E+00
 -1       246 0.00000E+00 0.00000E+00
 -1       252 0.00000E+00 0.00000E+00
 -1       258 0.00000E+00 0.00000E+00
 -3
    1PSTEP                         7           1           2          
  100CL  117 164426.6391          81                     3   17           1
 -4  SENFREQ     2    1
 -5  DFDN        1    1    1    0
 -5  DFDNFIL     1    1    2    0
 -1         1 0.00000E+00 0.00000E+00
 -1         2 0.00000E+00 0.00000E+00
 -1         3 0.00000E+00 0.00000E+00