    1C
    1UUSER                                                              
    1UDATE              22.april.2025                                   
    1UTIME              17:12:19                                        
    1UHOST                                                              
    1UPGM               CalculiX                                        
    1UVERSION           Version DEVELOPMENT                             
    1UCOMPILETIME       Tue Apr 22 15:45:42 CEST 2025                    
    1UDIR                                                               
    1UDBN                                                               
    1UMAT    1EL                                                        
    2C                            90                                     1
 -1         1 1.00000E+00 0.00000E+00 0.00000E+00
 -1         2 0.00000E+00 0.00000E+00 0.00000E+00
 -1         3 1.00000E+00 1.00000E+00 0.00000E+00
 -1         4 5.00000E-01 0.00000E+00 0.00000E+00
 -1         5 5.00000E-01 5.00000E-01 0.00000E+00
 -1         6 1.00000E+00 5.00000E-01 0.00000E+00
 -1         7 0.00000E+00 1.00000E+00 0.00000E+00
 -1         8 0.00000E+00 5.00000E-01 0.00000E+00
 -1         9 5.00000E-01 1.00000E+00 0.00000E+00
 -1        10 1.00000E+00 0.00000E+00 8.00000E+00
 -1        11 1.00000E+00 1.00000E+00 8.00000E+00
 -1        12 0.00000E+00 0.00000E+00 8.00000E+00
 -1        13 1.00000E+00 5.00000E-01 8.00000E+00
 -1        14 5.00000E-01 5.00000E-01 8.00000E+00
 -1        15 5.00000E-01 0.00000E+00 8.00000E+00
 -1        16 0.00000E+00 1.00000E+00 8.00000E+00
 -1        17 5.00000E-01 1.00000E+00 8.00000E+00
 -1        18 0.00000E+00 5.00000E-01 8.00000E+00
 -1        19 1.00000E+00 0.00000E+00 1.98927E+00
 -1        22 0.00000E+00 0.00000E+00 2.15072E+00
 -1        25 1.00000E+00 0.00000E+00 4.02920E+00
 -1        28 0.00000E+00 0.00000E+00 4.10044E+00
 -1        31 1.00000E+00 0.00000E+00 6.00000E+00
 -1        34 0.00000E+00 0.00000E+00 6.00000E+00
 -1        35 5.00000E-01 0.00000E+00 6.00000E+00
 -1        37 1.00000E+00 0.00000E+00 7.00000E+00
 -1        38 5.00000E-01 0.00000E+00 7.00000E+00
 -1        39 0.00000E+00 0.00000E+00 7.00000E+00
 -1        40 0.00000E+00 1.00000E+00 1.98943E+00
 -1        44 0.00000E+00 1.00000E+00 4.02933E+00
 -1        48 0.00000E+00 1.00000E+00 6.00000E+00
 -1        51 0.00000E+00 5.00000E-01 6.00000E+00
 -1        52 0.00000E+00 5.00000E-01 7.00000E+00
 -1        53 0.00000E+00 1.00000E+00 7.00000E+00
 -1        54 1.00000E+00 1.00000E+00 1.78064E+00
 -1        58 1.00000E+00 1.00000E+00 3.80000E+00
 -1        62 1.00000E+00 1.00000E+00 6.00000E+00
 -1        65 5.00000E-01 1.00000E+00 6.00000E+00
 -1        66 5.00000E-01 1.00000E+00 7.00000E+00
 -1        67 1.00000E+00 1.00000E+00 7.00000E+00
 -1        73 1.00000E+00 5.00000E-01 6.00000E+00
 -1        74 1.00000E+00 5.00000E-01 7.00000E+00
 -1       149 4.99871E-01 4.99871E-01 3.99987E+00
 -1       160 5.00000E-01 5.00000E-01 7.00000E+00
 -1       161 5.00000E-01 5.00000E-01 6.00000E+00
 -1       165 1.00000E+00 0.00000E+00 9.94635E-01
 -1       166 1.00000E+00 5.00000E-01 8.90320E-01
 -1       167 5.00000E-01 5.00000E-01 8.90320E-01
 -1       168 0.00000E+00 5.00000E-01 9.94714E-01
 -1       169 5.00000E-01 0.00000E+00 9.94635E-01
 -1       170 0.00000E+00 0.00000E+00 1.07536E+00
 -1       171 1.00000E+00 1.00000E+00 8.90320E-01
 -1       172 5.00000E-01 1.00000E+00 8.90320E-01
 -1       173 0.00000E+00 1.00000E+00 9.94714E-01
 -1       174 1.00000E+00 0.00000E+00 3.00924E+00
 -1       175 1.00000E+00 5.00000E-01 2.89463E+00
 -1       176 7.49936E-01 2.49935E-01 2.99457E+00
 -1       177 1.00000E+00 5.00000E-01 1.88496E+00
 -1       178 5.00000E-01 5.00000E-01 1.98935E+00
 -1       179 5.00000E-01 0.00000E+00 2.07000E+00
 -1       180 5.00000E-01 0.00000E+00 3.08996E+00
 -1       181 2.49935E-01 2.49935E-01 3.07530E+00
 -1       182 0.00000E+00 0.00000E+00 3.12558E+00
 -1       183 0.00000E+00 5.00000E-01 3.09003E+00
 -1       184 0.00000E+00 5.00000E-01 2.07008E+00
 -1       185 1.00000E+00 5.00000E-01 5.01460E+00
 -1       186 1.00000E+00 5.00000E-01 3.91460E+00
 -1       187 1.00000E+00 0.00000E+00 5.01460E+00
 -1       188 7.49936E-01 2.49935E-01 4.01454E+00
 -1       189 5.00000E-01 0.00000E+00 4.06482E+00
 -1       190 5.00000E-01 0.00000E+00 5.05022E+00
 -1       191 0.00000E+00 5.00000E-01 5.05022E+00
 -1       192 0.00000E+00 0.00000E+00 5.05022E+00
 -1       193 2.49935E-01 2.49935E-01 4.05016E+00
 -1       194 0.00000E+00 5.00000E-01 4.06489E+00
 -1       195 7.49936E-01 2.49935E-01 4.99994E+00
 -1       196 2.49935E-01 2.49935E-01 4.99994E+00
 -1       197 5.00000E-01 1.00000E+00 2.89471E+00
 -1       198 2.49935E-01 7.49936E-01 2.99465E+00
 -1       199 0.00000E+00 1.00000E+00 3.00938E+00
 -1       200 5.00000E-01 1.00000E+00 1.88503E+00
 -1       201 5.00000E-01 1.00000E+00 5.01467E+00
 -1       202 0.00000E+00 1.00000E+00 5.01467E+00
 -1       203 5.00000E-01 1.00000E+00 3.91467E+00
 -1       204 2.49935E-01 7.49936E-01 4.01460E+00
 -1       205 2.49935E-01 7.49936E-01 4.99994E+00
 -1       206 1.00000E+00 1.00000E+00 2.79032E+00
 -1       207 1.00000E+00 1.00000E+00 4.90000E+00
 -1       208 7.49936E-01 7.49936E-01 3.89994E+00
 -1       209 7.49936E-01 7.49936E-01 4.99994E+00
 -3
    3C                            31                                     1
 -1         1    6    0    1
 -2         2        22        19        40       170       179       169       168       184       178
 -1         2    6    0    1
 -2         2         3        54         1         5       171       167         4         6       166
 -1         3    6    0    1
 -2        22        44        28       149       183       194       182       181       204       193
 -1         4    6    0    1
 -2        28        34       149        48       192       196       193       191        51       205
 -1         5    6    0    1
 -2        40         7        54         2       173       172       200       168         8       167
 -1         6    6    0    1
 -2        54         2        19        40       167       169       177       200       168       178
 -1         7    6    0    1
 -2        40        44       149        58       199       204       198       197       203       208
 -1         8    6    0    1
 -2        44        48       149        62       202       205       204       201        65       209
 -1         9    6    0    1
 -2        22        19        40       149       179       178       184       181       176       198
 -1        10    6    0    1
 -2         7         3        54         2         9       171       172         8         5       167
 -1        11    6    0    1
 -2        22        28        25       149       182       189       180       181       193       188
 -1        12    6    0    1
 -2         1         2        19        54         4       169       165       166       167       177
 -1        13    6    0    1
 -2        58        19        40        54       175       178       197       206       177       200
 -1        14    6    0    1
 -2        28        25       149        31       189       188       193       190       187       195
 -1        15    6    0    1
 -2       149        48        34        62       205        51       196       209        65       161
 -1        16    6    0    1
 -2        58        25        62       149       186       185       207       208       188       209
 -1        17    6    0    1
 -2        19        25        58       149       174       186       175       176       188       208
 -1        18    6    0    1
 -2        22        19       149        25       179       176       181       180       174       188
 -1        19    6    0    1
 -2        25        62       149        31       185       209       188       187        73       195
 -1        20    6    0    1
 -2        28        48       149        44       191       205       193       194       202       204
 -1        21    6    0    1
 -2        28        34        31       149       192        35       190       193       196       195
 -1        22    6    0    1
 -2        34        62        31       149       161        73        35       196       209       195
 -1        23    6    0    1
 -2        22       149        40        44       181       198       184       183       204       199
 -1        24    6    0    1
 -2        44        62       149        58       201       209       204       203       207       208
 -1        25    6    0    1
 -2       149        58        19        40       208       175       176       198       197       178
 -1        45    6    0    1
 -2        34        16        11        48        52        17       160        51        53        66
 -1        46    6    0    1
 -2        11        62        31        34        67        73        74       160       161        35
 -1        47    6    0    1
 -2        12        11        34        16        14       160        39        18        17        52
 -1        54    6    0    1
 -2        62        48        34        11        65        51       161        67        66       160
 -1        56    6    0    1
 -2        34        11        10        31       160        13        38        35        74        37
 -1        57    6    0    1
 -2        10        11        34        12        13       160        38        15        14        39
 -3
    1PSTEP                         4           1           1          
  100CL  101 1.000000000          90                     0    1           1
 -4  DISP        4    1
 -5  D1          1    2    1    0
 -5  D2          1    2    2    0
 -5  D3          1    2    3    0
 -5  ALL         1    2    0    0    1ALL
 -1         1 0.00000E+00 0.00000E+00 0.00000E+00
 -1         2 1.42857E-04-4.98733E-18 0.00000E+00
 -1         3 0.00000E+00-1.42857E-04 0.00000E+00
 -1         4 7.14286E-05 5.89535E-19 0.00000E+00
 -1         5 7.14286E-05-7.14286E-05 0.00000E+00
 -1         6-4.69473E-18-7.14286E-05 0.00000E+00
 -1         7 1.42857E-04-1.42857E-04 0.00000E+00
 -1         8 1.42857E-04-7.14286E-05 0.00000E+00
 -1         9 7.14286E-05-1.42857E-04 0.00000E+00
 -1        10-8.07731E-16 9.55625E-17 3.80952E-03
 -1        11-8.28330E-16-1.42857E-04 3.80952E-03
 -1        12 1.42857E-04 7.76560E-17 3.80952E-03
 -1        13-8.17820E-16-7.14286E-05 3.80952E-03
 -1        14 7.14286E-05-7.14286E-05 3.80952E-03
 -1        15 7.14286E-05 8.70614E-17 3.80952E-03
 -1        16 1.42857E-04-1.42857E-04 3.80952E-03
 -1        17 7.14286E-05-1.42857E-04 3.80952E-03
 -1        18 1.42857E-04-7.14286E-05 3.80952E-03
 -1        19-1.19179E-16 7.61931E-17 9.47271E-04
 -1        22 1.42857E-04 7.32853E-17 1.02415E-03
 -1        25-3.60047E-16 1.72760E-16 1.91867E-03
 -1        28 1.42857E-04 1.66517E-16 1.95259E-03
 -1        31-5.95444E-16 1.72978E-16 2.85714E-03
 -1        34 1.42857E-04 1.64353E-16 2.85714E-03
 -1        35 7.14286E-05 1.67997E-16 2.85714E-03
 -1        37-7.03132E-16 1.38320E-16 3.33333E-03
 -1        38 7.14286E-05 1.30644E-16 3.33333E-03
 -1        39 1.42857E-04 1.23057E-16 3.33333E-03
 -1        40 1.42857E-04-1.42857E-04 9.47347E-04
 -1        44 1.42857E-04-1.42857E-04 1.91873E-03
 -1        48 1.42857E-04-1.42857E-04 2.85714E-03
 -1        51 1.42857E-04-7.14286E-05 2.85714E-03
 -1        52 1.42857E-04-7.14286E-05 3.33333E-03
 -1        53 1.42857E-04-1.42857E-04 3.33333E-03
 -1        54-1.04747E-16-1.42857E-04 8.47924E-04
 -1        58-3.43018E-16-1.42857E-04 1.80952E-03
 -1        62-6.09309E-16-1.42857E-04 2.85714E-03
 -1        65 7.14286E-05-1.42857E-04 2.85714E-03
 -1        66 7.14286E-05-1.42857E-04 3.33333E-03
 -1        67-7.20019E-16-1.42857E-04 3.33333E-03
 -1        73-6.01752E-16-7.14286E-05 2.85714E-03
 -1        74-7.11472E-16-7.14286E-05 3.33333E-03
 -1       149 7.14470E-05-7.14101E-05 1.90470E-03
 -1       160 7.14286E-05-7.14286E-05 3.33333E-03
 -1       161 7.14286E-05-7.14286E-05 2.85714E-03
 -1       165-3.67797E-17 2.97907E-17 4.73636E-04
 -1       166-3.31546E-17-7.14286E-05 4.23962E-04
 -1       167 7.14286E-05-7.14286E-05 4.23962E-04
 -1       168 1.42857E-04-7.14286E-05 4.73674E-04
 -1       169 7.14286E-05 2.46419E-17 4.73636E-04
 -1       170 1.42857E-04 2.15096E-17 5.12077E-04
 -1       171-3.03170E-17-1.42857E-04 4.23962E-04
 -1       172 7.14286E-05-1.42857E-04 4.23962E-04
 -1       173 1.42857E-04-1.42857E-04 4.73674E-04
 -1       174-2.33435E-16 1.30348E-16 1.43297E-03
 -1       175-2.25444E-16-7.14286E-05 1.37840E-03
 -1       176 3.57235E-05-3.57051E-05 1.42599E-03
 -1       177-1.13267E-16-7.14286E-05 8.97598E-04
 -1       178 7.14286E-05-7.14286E-05 9.47309E-04
 -1       179 7.14286E-05 7.49700E-17 9.85713E-04
 -1       180 7.14286E-05 1.28716E-16 1.47141E-03
 -1       181 1.07152E-04-3.57051E-05 1.46443E-03
 -1       182 1.42857E-04 1.26106E-16 1.48837E-03
 -1       183 1.42857E-04-7.14286E-05 1.47144E-03
 -1       184 1.42857E-04-7.14286E-05 9.85750E-04
 -1       185-4.88570E-16-7.14286E-05 2.38791E-03
 -1       186-3.51838E-16-7.14286E-05 1.86410E-03
 -1       187-4.81897E-16 1.88016E-16 2.38791E-03
 -1       188 3.57235E-05-3.57051E-05 1.91168E-03
 -1       189 7.14286E-05 1.68563E-16 1.93563E-03
 -1       190 7.14286E-05 1.82566E-16 2.40487E-03
 -1       191 1.42857E-04-7.14286E-05 2.40487E-03
 -1       192 1.42857E-04 1.79200E-16 2.40487E-03
 -1       193 1.07152E-04-3.57051E-05 1.92865E-03
 -1       194 1.42857E-04-7.14286E-05 1.93566E-03
 -1       195 3.57235E-05-3.57051E-05 2.38092E-03
 -1       196 1.07152E-04-3.57051E-05 2.38092E-03
 -1       197 7.14286E-05-1.42857E-04 1.37844E-03
 -1       198 1.07152E-04-1.07134E-04 1.42602E-03
 -1       199 1.42857E-04-1.42857E-04 1.43304E-03
 -1       200 7.14286E-05-1.42857E-04 8.97636E-04
 -1       201 7.14286E-05-1.42857E-04 2.38794E-03
 -1       202 1.42857E-04-1.42857E-04 2.38794E-03
 -1       203 7.14286E-05-1.42857E-04 1.86413E-03
 -1       204 1.07152E-04-1.07134E-04 1.91171E-03
 -1       205 1.07152E-04-1.07134E-04 2.38092E-03
 -1       206-2.16366E-16-1.42857E-04 1.32872E-03
 -1       207-4.82783E-16-1.42857E-04 2.33333E-03
 -1       208 3.57235E-05-1.07134E-04 1.85711E-03
 -1       209 3.57235E-05-1.07134E-04 2.38092E-03
 -3
    1PSTEP                         5           1           1          
  100CL  101 1.000000000          90                     0    1           1
 -4  STRESS      6    1
 -5  SXX         1    4    1    1
 -5  SYY         1    4    2    2
 -5  SZZ         1    4    3    3
 -5  SXY         1    4    1    2
 -5  SYZ         1    4    2    3
 -5  SZX         1    4    3    1
 -1         1 1.98865E-12 2.08514E-12 9.99990E+01-1.47083E-12 9.41631E-13-7.74924E-13
 -1         2 2.11429E-13-2.17258E-13 9.99990E+01-1.02663E-13-9.67602E-15-2.55989E-13
 -1         3 4.57430E-13 6.72773E-13 9.99990E+01 1.03748E-13 5.03122E-13-7.45769E-13
 -1         4 1.15849E-12 1.04446E-12 9.99990E+01-6.94509E-13 4.22420E-13-8.01597E-13
 -1         5 6.81685E-14 5.05947E-13 9.99990E+01-1.22091E-13 4.80175E-13-6.29817E-13
 -1         6 1.12313E-12 2.19969E-12 9.99990E+01-9.34141E-13 7.92799E-13-5.87398E-13
 -1         7 8.65598E-14 1.02435E-13 9.99990E+01-1.65227E-13 3.24318E-13-4.08631E-13
 -1         8-4.84902E-14 1.34211E-13 9.99990E+01-3.35900E-13 4.70260E-13-2.42182E-13
 -1         9 4.03424E-13 4.16919E-13 9.99990E+01-2.50775E-14 3.71930E-13-7.32712E-13
 -1        10 4.16339E-13 2.68879E-13 9.99990E+01-5.55303E-14 4.51307E-14 2.88584E-13
 -1        11-3.06493E-13-4.31321E-13 9.99990E+01-1.14694E-13 4.40803E-13-1.36261E-13
 -1        12 1.37505E-13-4.19040E-13 9.99990E+01 1.62680E-13-5.73694E-13 5.11557E-13
 -1        13 1.66100E-13-2.90252E-14 9.99990E+01-1.09682E-13-7.71010E-14 2.25094E-13
 -1        14 1.43710E-14-5.26286E-13 9.99990E+01-1.11458E-13-1.37460E-13 1.85712E-13
 -1        15 2.47625E-13 2.08620E-13 9.99990E+01-1.32466E-13-1.92580E-13 9.73906E-14
 -1        16 5.43173E-13 2.04672E-13 9.99990E+01-5.77501E-14-1.74781E-13 2.40982E-13
 -1        17 3.36626E-13-1.37913E-14 9.99990E+01-2.27251E-13 2.37497E-13-3.21216E-13
 -1        18 4.00759E-13-2.84065E-13 9.99990E+01 2.05104E-13-3.27106E-13 4.95749E-13
 -1        19-2.92473E-13-5.18157E-14 9.99990E+01-1.78909E-14 4.72940E-13-2.38791E-13
 -1        22 4.23686E-14-4.02388E-14 9.99990E+01 3.06679E-14-1.79347E-13-3.36463E-13
 -1        25-5.04196E-14 2.26354E-13 9.99990E+01-1.01206E-13 5.31096E-14-1.23486E-13
 -1        28 1.09165E-13 3.45466E-16 9.99990E+01-3.37219E-14 5.30563E-13 1.10898E-13
 -1        31 3.17106E-14 2.12834E-13 9.99990E+01 3.78741E-14-8.34316E-14 1.02792E-13
 -1        34-8.14173E-14 1.54930E-15 9.99990E+01 8.81308E-14-1.07797E-14 3.37678E-13
 -1        35 1.18262E-13 9.28933E-14 9.99990E+01 2.72145E-14-8.66055E-14 3.71984E-13
 -1        37 4.18228E-13 1.86144E-13 9.99990E+01 3.42912E-14-5.14525E-14 4.03585E-13
 -1        38 1.81988E-13 2.05326E-13 9.99990E+01-3.55045E-14 8.16292E-14 2.95568E-13
 -1        39-1.92176E-13 7.74672E-14 9.99990E+01 1.46282E-13-3.00903E-13 2.57001E-13
 -1        40 1.73691E-13 4.06439E-13 9.99990E+01 2.16094E-14 4.39839E-13-5.29176E-13
 -1        44 7.52180E-14 1.25991E-14 9.99990E+01 7.42779E-14-1.00412E-13-5.46773E-13
 -1        48-1.84138E-13-1.81115E-13 9.99990E+01 1.63203E-14 9.02879E-14-6.87048E-13
 -1        51-1.02583E-13-9.79632E-14 9.99990E+01 6.04436E-14 9.65057E-14-2.68943E-13
 -1        52-5.26358E-14 3.99303E-13 9.99990E+01 4.22981E-14-1.38066E-13 1.51795E-13
 -1        53 1.85108E-13-1.48668E-13 9.99990E+01 1.04421E-14-2.12150E-13-3.39786E-14
 -1        54-1.85238E-13-5.70911E-13 9.99990E+01 1.65112E-13 2.23260E-13-4.36307E-13
 -1        58 8.80762E-14 1.11308E-14 9.99990E+01 7.00970E-14 4.78198E-14-3.16329E-13
 -1        62-1.90563E-13-1.17333E-13 9.99990E+01-7.17655E-14-1.48003E-13 1.58318E-13
 -1        65-1.79212E-13-1.75223E-13 9.99990E+01-7.09285E-14-1.07910E-13-3.00885E-13
 -1        66-1.09564E-13-2.55790E-13 9.99990E+01-8.31119E-15 2.26330E-13-3.11462E-13
 -1        67-3.49750E-13-2.34301E-13 9.99990E+01 4.97561E-14 1.66426E-13 1.92078E-13
 -1        73 2.27559E-13 1.59639E-13 9.99990E+01-3.45439E-14-2.73107E-13 6.37664E-14
 -1        74-2.19307E-14 1.31585E-13 9.99990E+01 5.27621E-14 2.57746E-13 3.95080E-14
 -1       149 1.23751E-14 6.77716E-14 9.99990E+01-9.72722E-14 2.36646E-13-3.84574E-13
 -1       160-1.22455E-13 1.63293E-15 9.99990E+01-2.48727E-14 1.91375E-13 7.19971E-14
 -1       161 1.71218E-13 1.11081E-14 9.99990E+01-2.31742E-14-2.72637E-13 2.97413E-13
 -1       165 3.83540E-13 2.38767E-13 9.99990E+01-3.01027E-13 7.50237E-13-3.06858E-13
 -1       166 6.38147E-13 3.29486E-13 9.99990E+01-6.11307E-13 5.54288E-13-2.81617E-13
 -1       167 3.43071E-15-3.97180E-13 9.99990E+01 3.24782E-14 1.47184E-13-3.25118E-13
 -1       168-3.30355E-13-5.91895E-13 9.99990E+01-7.12859E-15 1.25782E-13-2.85715E-13
 -1       169 4.62125E-13 1.33002E-13 9.99990E+01 1.34766E-13 7.35344E-14-2.10057E-13
 -1       170 1.23356E-13-2.55050E-13 9.99990E+01 9.78686E-14-9.82302E-14-2.67409E-13
 -1       171 1.19805E-13-4.43375E-13 9.99990E+01 2.49169E-13 3.42341E-13-4.64126E-13
 -1       172 1.81889E-13-1.75609E-13 9.99990E+01 9.58118E-14 2.18610E-13-5.40502E-13
 -1       173-3.17018E-14-1.00832E-13 9.99990E+01 3.17587E-14 6.13121E-14-4.64677E-13
 -1       174 7.03377E-14 8.91243E-14 9.99990E+01-1.26046E-13 9.97752E-14-1.12470E-13
 -1       175-3.02970E-13-4.54278E-13 9.99990E+01 3.70231E-14 2.98617E-13-1.27378E-13
 -1       176-1.92607E-13-4.77036E-13 9.99990E+01-1.82471E-14 2.72661E-13-2.67267E-13
 -1       177-3.47098E-13 4.00411E-14 9.99990E+01-1.01899E-13 5.98661E-13-1.85904E-13
 -1       178-5.48438E-14 2.38842E-13 9.99990E+01-4.14721E-14 6.70773E-13-5.59185E-13
 -1       179-1.59162E-13 1.82822E-13 9.99990E+01 4.08829E-14-9.73908E-14-6.68747E-13
 -1       180 2.57420E-13 1.40058E-13 9.99990E+01 7.95600E-14-2.60199E-13-3.82259E-13
 -1       181 6.90695E-14-1.48215E-13 9.99990E+01-3.97301E-14 1.24319E-13-3.18434E-13
 -1       182 1.14314E-13-3.45027E-13 9.99990E+01-2.36511E-14 2.65055E-13-2.44457E-13
 -1       183-1.32510E-13-3.01951E-13 9.99990E+01-7.39544E-15 2.37354E-13-1.85288E-13
 -1       184-7.18176E-14 3.56951E-13 9.99990E+01-5.61472E-14 5.40881E-13-1.81205E-13
 -1       185-2.11037E-13-1.01398E-13 9.99990E+01-2.21042E-14-1.77890E-13 1.74086E-13
 -1       186 2.81274E-15 1.14092E-13 9.99990E+01-3.63595E-14 2.28285E-13-2.95962E-13
 -1       187-4.67100E-13-1.86786E-13 9.99990E+01 7.84922E-14-2.29143E-13 2.64604E-15
 -1       188 6.07980E-14 1.68097E-13 9.99990E+01-1.50267E-13 2.65546E-13-2.76924E-13
 -1       189 5.29937E-14 1.39220E-13 9.99990E+01-8.79366E-14 2.86627E-13-1.57478E-13
 -1       190-6.20863E-14 2.39553E-14 9.99990E+01 6.41258E-14 3.47172E-14-1.07260E-13
 -1       191-4.24960E-14 8.77564E-14 9.99990E+01-4.74625E-14 1.51613E-13-2.46006E-13
 -1       192-6.06305E-14-2.85446E-13 9.99990E+01 9.37135E-14 3.90671E-14 1.57869E-13
 -1       193 5.95731E-16 1.39368E-13 9.99990E+01-7.46437E-14 3.85667E-13-9.62611E-14
 -1       194-2.63245E-14 1.22126E-14 9.99990E+01 6.23574E-14 4.02737E-13 1.93840E-14
 -1       195-1.02337E-13 9.25902E-14 9.99990E+01-7.86948E-14-1.87196E-15-2.17981E-13
 -1       196-1.37037E-13-2.34914E-13 9.99990E+01-1.15641E-14 3.93619E-14 3.39073E-14
 -1       197 4.51005E-13 3.09598E-13 9.99990E+01-2.63540E-14 7.16227E-14-4.37296E-13
 -1       198 5.09879E-13 3.41658E-13 9.99990E+01-7.05295E-14 2.75365E-13-3.92979E-13
 -1       199 9.30349E-14-8.87181E-14 9.99990E+01 8.52620E-14 2.38174E-13-4.10987E-13
 -1       200-1.09490E-13 1.22796E-13 9.99990E+01 1.93313E-13 2.79068E-13-8.26245E-13
 -1       201-6.74635E-14 1.38135E-13 9.99990E+01-7.73057E-14 9.53553E-14-1.82835E-13
 -1       202 3.12115E-13 3.71525E-13 9.99990E+01-2.32254E-14-1.13983E-13-3.96115E-13
 -1       203 8.97413E-14-1.07246E-13 9.99990E+01 6.59024E-14-1.44504E-13-6.12524E-13
 -1       204-7.17481E-14 8.27721E-14 9.99990E+01 3.57272E-14 8.39863E-14-5.21540E-13
 -1       205-2.13480E-13 6.27702E-14 9.99990E+01-2.31970E-14 1.13366E-13-4.93314E-13
 -1       206 3.12583E-14-2.79722E-13 9.99990E+01-8.36005E-14-2.75522E-14-6.88725E-13
 -1       207-1.27747E-13 1.65742E-13 9.99990E+01 5.28425E-14 5.66112E-13 2.01953E-13
 -1       208 6.44857E-14 9.63113E-14 9.99990E+01 3.17894E-14 1.54865E-13-3.90974E-13
 -1       209-1.70602E-13-4.65668E-14 9.99990E+01-8.71459E-14 4.76892E-14-1.09806E-13
 -3
    1PSTEP                         6           1           1          
  100CL  101 1.000000000          90                     0    1           1
 -4  ERROR       1    1
 -5  STR(%)      1    1    0    0
 -1         1 1.92273E-12
 -1         2 1.99947E-12
 -1         3 1.92273E-12
 -1         4 1.96110E-12
 -1         5 1.96110E-12
 -1         6 1.92273E-12
 -1         7 1.99947E-12
 -1         8 1.99947E-12
 -1         9 1.96110E-12
 -1        10 4.09273E-13
 -1        11 6.48015E-13
 -1        12 1.87583E-13
 -1        13 5.28644E-13
 -1        14 4.17799E-13
 -1        15 2.98428E-13
 -1        16 2.81375E-13
 -1        17 4.64695E-13
 -1        18 2.34479E-13
 -1        19 1.83746E-12
 -1        22 1.83746E-12
 -1        25 1.05302E-12
 -1        28 9.42180E-13
 -1        31 1.03597E-12
 -1        34 9.03810E-13
 -1        35 9.69891E-13
 -1        37 7.22622E-13
 -1        38 6.56541E-13
 -1        39 5.45697E-13
 -1        40 1.99947E-12
 -1        44 9.42180E-13
 -1        48 9.42180E-13
 -1        51 9.22995E-13
 -1        52 5.92593E-13
 -1        53 6.11777E-13
 -1        54 1.99947E-12
 -1        58 1.05302E-12
 -1        62 1.05302E-12
 -1        65 9.97602E-13
 -1        66 7.95097E-13
 -1        67 8.50520E-13
 -1        73 1.04450E-12
 -1        74 8.41993E-13
 -1       149 1.05302E-12
 -1       160 7.75913E-13
 -1       161 9.78417E-13
 -1       165 1.88010E-12
 -1       166 1.96110E-12
 -1       167 1.99947E-12
 -1       168 1.99947E-12
 -1       169 1.91847E-12
 -1       170 1.91847E-12
 -1       171 1.96110E-12
 -1       172 1.99947E-12
 -1       173 1.99947E-12
 -1       174 1.44524E-12
 -1       175 1.44524E-12
 -1       176 1.44524E-12
 -1       177 1.91847E-12
 -1       178 1.91847E-12
 -1       179 1.83746E-12
 -1       180 1.44524E-12
 -1       181 1.44524E-12
 -1       182 1.38982E-12
 -1       183 1.38982E-12
 -1       184 1.91847E-12
 -1       185 1.05302E-12
 -1       186 1.05302E-12
 -1       187 1.04450E-12
 -1       188 1.05302E-12
 -1       189 9.97602E-13
 -1       190 9.89075E-13
 -1       191 9.42180E-13
 -1       192 9.22995E-13
 -1       193 9.97602E-13
 -1       194 9.42180E-13
 -1       195 1.04450E-12
 -1       196 9.78417E-13
 -1       197 1.52625E-12
 -1       198 1.52625E-12
 -1       199 1.47082E-12
 -1       200 1.99947E-12
 -1       201 9.97602E-13
 -1       202 9.42180E-13
 -1       203 9.97602E-13
 -1       204 9.97602E-13
 -1       205 9.97602E-13
 -1       206 1.52625E-12
 -1       207 1.05302E-12
 -1       208 1.05302E-12
 -1       209 1.05302E-12
 -3
 9999
