    1C
    1UUSER                                                              
    1UDATE              02.december.2023                                
    1UTIME              14:46:11                                        
    1UHOST                                                              
    1UPGM               CalculiX                                        
    1UVERSION           Version DEVELOPMENT                             
    1UCOMPILETIME       Sat Dec  2 14:42:26 CET 2023                    
    1UDIR                                                               
    1UDBN                                                               
    1UMAT    1JOHNSONCOOKSTEEL                                          
    2C                           425                                     1
 -1         1 0.00000E+00 1.00000E+00 0.00000E+00
 -1         2 0.00000E+00 1.00000E+00 5.00000E-01
 -1         3 0.00000E+00 7.50000E-01 5.00000E-01
 -1         4 0.00000E+00 7.50000E-01 0.00000E+00
 -1         5 2.50000E-01 1.00000E+00 0.00000E+00
 -1         6 2.50000E-01 1.00000E+00 5.00000E-01
 -1         7 2.50000E-01 7.50000E-01 5.00000E-01
 -1         8 2.50000E-01 7.50000E-01 0.00000E+00
 -1         9 0.00000E+00 1.00000E+00 1.00000E+00
 -1        10 0.00000E+00 7.50000E-01 1.00000E+00
 -1        11 2.50000E-01 1.00000E+00 1.00000E+00
 -1        12 2.50000E-01 7.50000E-01 1.00000E+00
 -1        13 0.00000E+00 1.00000E+00 1.50000E+00
 -1        14 0.00000E+00 7.50000E-01 1.50000E+00
 -1        15 2.50000E-01 1.00000E+00 1.50000E+00
 -1        16 2.50000E-01 7.50000E-01 1.50000E+00
 -1        17 0.00000E+00 1.00000E+00 2.00000E+00
 -1        18 0.00000E+00 7.50000E-01 2.00000E+00
 -1        19 2.50000E-01 1.00000E+00 2.00000E+00
 -1        20 2.50000E-01 7.50000E-01 2.00000E+00
 -1        21 0.00000E+00 1.00000E+00 2.50000E+00
 -1        22 0.00000E+00 7.50000E-01 2.50000E+00
 -1        23 2.50000E-01 1.00000E+00 2.50000E+00
 -1        24 2.50000E-01 7.50000E-01 2.50000E+00
 -1        25 0.00000E+00 1.00000E+00 3.00000E+00
 -1        26 0.00000E+00 7.50000E-01 3.00000E+00
 -1        27 2.50000E-01 1.00000E+00 3.00000E+00
 -1        28 2.50000E-01 7.50000E-01 3.00000E+00
 -1        29 0.00000E+00 1.00000E+00 3.50000E+00
 -1        30 0.00000E+00 7.50000E-01 3.50000E+00
 -1        31 2.50000E-01 1.00000E+00 3.50000E+00
 -1        32 2.50000E-01 7.50000E-01 3.50000E+00
 -1        33 0.00000E+00 1.00000E+00 4.00000E+00
 -1        34 0.00000E+00 7.50000E-01 4.00000E+00
 -1        35 2.50000E-01 1.00000E+00 4.00000E+00
 -1        36 2.50000E-01 7.50000E-01 4.00000E+00
 -1        37 0.00000E+00 1.00000E+00 4.50000E+00
 -1        38 0.00000E+00 7.50000E-01 4.50000E+00
 -1        39 2.50000E-01 1.00000E+00 4.50000E+00
 -1        40 2.50000E-01 7.50000E-01 4.50000E+00
 -1        41 0.00000E+00 1.00000E+00 5.00000E+00
 -1        42 0.00000E+00 7.50000E-01 5.00000E+00
 -1        43 2.50000E-01 1.00000E+00 5.00000E+00
 -1        44 2.50000E-01 7.50000E-01 5.00000E+00
 -1        45 0.00000E+00 1.00000E+00 5.50000E+00
 -1        46 0.00000E+00 7.50000E-01 5.50000E+00
 -1        47 2.50000E-01 1.00000E+00 5.50000E+00
 -1        48 2.50000E-01 7.50000E-01 5.50000E+00
 -1        49 0.00000E+00 1.00000E+00 6.00000E+00
 -1        50 0.00000E+00 7.50000E-01 6.00000E+00
 -1        51 2.50000E-01 1.00000E+00 6.00000E+00
 -1        52 2.50000E-01 7.50000E-01 6.00000E+00
 -1        53 0.00000E+00 1.00000E+00 6.50000E+00
 -1        54 0.00000E+00 7.50000E-01 6.50000E+00
 -1        55 2.50000E-01 1.00000E+00 6.50000E+00
 -1        56 2.50000E-01 7.50000E-01 6.50000E+00
 -1        57 0.00000E+00 1.00000E+00 7.00000E+00
 -1        58 0.00000E+00 7.50000E-01 7.00000E+00
 -1        59 2.50000E-01 1.00000E+00 7.00000E+00
 -1        60 2.50000E-01 7.50000E-01 7.00000E+00
 -1        61 0.00000E+00 1.00000E+00 7.50000E+00
 -1        62 0.00000E+00 7.50000E-01 7.50000E+00
 -1        63 2.50000E-01 1.00000E+00 7.50000E+00
 -1        64 2.50000E-01 7.50000E-01 7.50000E+00
 -1        65 0.00000E+00 1.00000E+00 8.00000E+00
 -1        66 0.00000E+00 7.50000E-01 8.00000E+00
 -1        67 2.50000E-01 1.00000E+00 8.00000E+00
 -1        68 2.50000E-01 7.50000E-01 8.00000E+00
 -1        69 5.00000E-01 1.00000E+00 0.00000E+00
 -1        70 5.00000E-01 1.00000E+00 5.00000E-01
 -1        71 5.00000E-01 7.50000E-01 5.00000E-01
 -1        72 5.00000E-01 7.50000E-01 0.00000E+00
 -1        73 5.00000E-01 1.00000E+00 1.00000E+00
 -1        74 5.00000E-01 7.50000E-01 1.00000E+00
 -1        75 5.00000E-01 1.00000E+00 1.50000E+00
 -1        76 5.00000E-01 7.50000E-01 1.50000E+00
 -1        77 5.00000E-01 1.00000E+00 2.00000E+00
 -1        78 5.00000E-01 7.50000E-01 2.00000E+00
 -1        79 5.00000E-01 1.00000E+00 2.50000E+00
 -1        80 5.00000E-01 7.50000E-01 2.50000E+00
 -1        81 5.00000E-01 1.00000E+00 3.00000E+00
 -1        82 5.00000E-01 7.50000E-01 3.00000E+00
 -1        83 5.00000E-01 1.00000E+00 3.50000E+00
 -1        84 5.00000E-01 7.50000E-01 3.50000E+00
 -1        85 5.00000E-01 1.00000E+00 4.00000E+00
 -1        86 5.00000E-01 7.50000E-01 4.00000E+00
 -1        87 5.00000E-01 1.00000E+00 4.50000E+00
 -1        88 5.00000E-01 7.50000E-01 4.50000E+00
 -1        89 5.00000E-01 1.00000E+00 5.00000E+00
 -1        90 5.00000E-01 7.50000E-01 5.00000E+00
 -1        91 5.00000E-01 1.00000E+00 5.50000E+00
 -1        92 5.00000E-01 7.50000E-01 5.50000E+00
 -1        93 5.00000E-01 1.00000E+00 6.00000E+00
 -1        94 5.00000E-01 7.50000E-01 6.00000E+00
 -1        95 5.00000E-01 1.00000E+00 6.50000E+00
 -1        96 5.00000E-01 7.50000E-01 6.50000E+00
 -1        97 5.00000E-01 1.00000E+00 7.00000E+00
 -1        98 5.00000E-01 7.50000E-01 7.00000E+00
 -1        99 5.00000E-01 1.00000E+00 7.50000E+00
 -1       100 5.00000E-01 7.50000E-01 7.50000E+00
 -1       101 5.00000E-01 1.00000E+00 8.00000E+00
 -1       102 5.00000E-01 7.50000E-01 8.00000E+00
 -1       103 7.50000E-01 1.00000E+00 0.00000E+00
 -1       104 7.50000E-01 1.00000E+00 5.00000E-01
 -1       105 7.50000E-01 7.50000E-01 5.00000E-01
 -1       106 7.50000E-01 7.50000E-01 0.00000E+00
 -1       107 7.50000E-01 1.00000E+00 1.00000E+00
 -1       108 7.50000E-01 7.50000E-01 1.00000E+00
 -1       109 7.50000E-01 1.00000E+00 1.50000E+00
 -1       110 7.50000E-01 7.50000E-01 1.50000E+00
 -1       111 7.50000E-01 1.00000E+00 2.00000E+00
 -1       112 7.50000E-01 7.50000E-01 2.00000E+00
 -1       113 7.50000E-01 1.00000E+00 2.50000E+00
 -1       114 7.50000E-01 7.50000E-01 2.50000E+00
 -1       115 7.50000E-01 1.00000E+00 3.00000E+00
 -1       116 7.50000E-01 7.50000E-01 3.00000E+00
 -1       117 7.50000E-01 1.00000E+00 3.50000E+00
 -1       118 7.50000E-01 7.50000E-01 3.50000E+00
 -1       119 7.50000E-01 1.00000E+00 4.00000E+00
 -1       120 7.50000E-01 7.50000E-01 4.00000E+00
 -1       121 7.50000E-01 1.00000E+00 4.50000E+00
 -1       122 7.50000E-01 7.50000E-01 4.50000E+00
 -1       123 7.50000E-01 1.00000E+00 5.00000E+00
 -1       124 7.50000E-01 7.50000E-01 5.00000E+00
 -1       125 7.50000E-01 1.00000E+00 5.50000E+00
 -1       126 7.50000E-01 7.50000E-01 5.50000E+00
 -1       127 7.50000E-01 1.00000E+00 6.00000E+00
 -1       128 7.50000E-01 7.50000E-01 6.00000E+00
 -1       129 7.50000E-01 1.00000E+00 6.50000E+00
 -1       130 7.50000E-01 7.50000E-01 6.50000E+00
 -1       131 7.50000E-01 1.00000E+00 7.00000E+00
 -1       132 7.50000E-01 7.50000E-01 7.00000E+00
 -1       133 7.50000E-01 1.00000E+00 7.50000E+00
 -1       134 7.50000E-01 7.50000E-01 7.50000E+00
 -1       135 7.50000E-01 1.00000E+00 8.00000E+00
 -1       136 7.50000E-01 7.50000E-01 8.00000E+00
 -1       137 1.00000E+00 1.00000E+00 0.00000E+00
 -1       138 1.00000E+00 1.00000E+00 5.00000E-01
 -1       139 1.00000E+00 7.50000E-01 5.00000E-01
 -1       140 1.00000E+00 7.50000E-01 0.00000E+00
 -1       141 1.00000E+00 1.00000E+00 1.00000E+00
 -1       142 1.00000E+00 7.50000E-01 1.00000E+00
 -1       143 1.00000E+00 1.00000E+00 1.50000E+00
 -1       144 1.00000E+00 7.50000E-01 1.50000E+00
 -1       145 1.00000E+00 1.00000E+00 2.00000E+00
 -1       146 1.00000E+00 7.50000E-01 2.00000E+00
 -1       147 1.00000E+00 1.00000E+00 2.50000E+00
 -1       148 1.00000E+00 7.50000E-01 2.50000E+00
 -1       149 1.00000E+00 1.00000E+00 3.00000E+00
 -1       150 1.00000E+00 7.50000E-01 3.00000E+00
 -1       151 1.00000E+00 1.00000E+00 3.50000E+00
 -1       152 1.00000E+00 7.50000E-01 3.50000E+00
 -1       153 1.00000E+00 1.00000E+00 4.00000E+00
 -1       154 1.00000E+00 7.50000E-01 4.00000E+00
 -1       155 1.00000E+00 1.00000E+00 4.50000E+00
 -1       156 1.00000E+00 7.50000E-01 4.50000E+00
 -1       157 1.00000E+00 1.00000E+00 5.00000E+00
 -1       158 1.00000E+00 7.50000E-01 5.00000E+00
 -1       159 1.00000E+00 1.00000E+00 5.50000E+00
 -1       160 1.00000E+00 7.50000E-01 5.50000E+00
 -1       161 1.00000E+00 1.00000E+00 6.00000E+00
 -1       162 1.00000E+00 7.50000E-01 6.00000E+00
 -1       163 1.00000E+00 1.00000E+00 6.50000E+00
 -1       164 1.00000E+00 7.50000E-01 6.50000E+00
 -1       165 1.00000E+00 1.00000E+00 7.00000E+00
 -1       166 1.00000E+00 7.50000E-01 7.00000E+00
 -1       167 1.00000E+00 1.00000E+00 7.50000E+00
 -1       168 1.00000E+00 7.50000E-01 7.50000E+00
 -1       169 1.00000E+00 1.00000E+00 8.00000E+00
 -1       170 1.00000E+00 7.50000E-01 8.00000E+00
 -1       171 0.00000E+00 5.00000E-01 5.00000E-01
 -1       172 0.00000E+00 5.00000E-01 0.00000E+00
 -1       173 2.50000E-01 5.00000E-01 5.00000E-01
 -1       174 2.50000E-01 5.00000E-01 0.00000E+00
 -1       175 0.00000E+00 5.00000E-01 1.00000E+00
 -1       176 2.50000E-01 5.00000E-01 1.00000E+00
 -1       177 0.00000E+00 5.00000E-01 1.50000E+00
 -1       178 2.50000E-01 5.00000E-01 1.50000E+00
 -1       179 0.00000E+00 5.00000E-01 2.00000E+00
 -1       180 2.50000E-01 5.00000E-01 2.00000E+00
 -1       181 0.00000E+00 5.00000E-01 2.50000E+00
 -1       182 2.50000E-01 5.00000E-01 2.50000E+00
 -1       183 0.00000E+00 5.00000E-01 3.00000E+00
 -1       184 2.50000E-01 5.00000E-01 3.00000E+00
 -1       185 0.00000E+00 5.00000E-01 3.50000E+00
 -1       186 2.50000E-01 5.00000E-01 3.50000E+00
 -1       187 0.00000E+00 5.00000E-01 4.00000E+00
 -1       188 2.50000E-01 5.00000E-01 4.00000E+00
 -1       189 0.00000E+00 5.00000E-01 4.50000E+00
 -1       190 2.50000E-01 5.00000E-01 4.50000E+00
 -1       191 0.00000E+00 5.00000E-01 5.00000E+00
 -1       192 2.50000E-01 5.00000E-01 5.00000E+00
 -1       193 0.00000E+00 5.00000E-01 5.50000E+00
 -1       194 2.50000E-01 5.00000E-01 5.50000E+00
 -1       195 0.00000E+00 5.00000E-01 6.00000E+00
 -1       196 2.50000E-01 5.00000E-01 6.00000E+00
 -1       197 0.00000E+00 5.00000E-01 6.50000E+00
 -1       198 2.50000E-01 5.00000E-01 6.50000E+00
 -1       199 0.00000E+00 5.00000E-01 7.00000E+00
 -1       200 2.50000E-01 5.00000E-01 7.00000E+00
 -1       201 0.00000E+00 5.00000E-01 7.50000E+00
 -1       202 2.50000E-01 5.00000E-01 7.50000E+00
 -1       203 0.00000E+00 5.00000E-01 8.00000E+00
 -1       204 2.50000E-01 5.00000E-01 8.00000E+00
 -1       205 5.00000E-01 5.00000E-01 5.00000E-01
 -1       206 5.00000E-01 5.00000E-01 0.00000E+00
 -1       207 5.00000E-01 5.00000E-01 1.00000E+00
 -1       208 5.00000E-01 5.00000E-01 1.50000E+00
 -1       209 5.00000E-01 5.00000E-01 2.00000E+00
 -1       210 5.00000E-01 5.00000E-01 2.50000E+00
 -1       211 5.00000E-01 5.00000E-01 3.00000E+00
 -1       212 5.00000E-01 5.00000E-01 3.50000E+00
 -1       213 5.00000E-01 5.00000E-01 4.00000E+00
 -1       214 5.00000E-01 5.00000E-01 4.50000E+00
 -1       215 5.00000E-01 5.00000E-01 5.00000E+00
 -1       216 5.00000E-01 5.00000E-01 5.50000E+00
 -1       217 5.00000E-01 5.00000E-01 6.00000E+00
 -1       218 5.00000E-01 5.00000E-01 6.50000E+00
 -1       219 5.00000E-01 5.00000E-01 7.00000E+00
 -1       220 5.00000E-01 5.00000E-01 7.50000E+00
 -1       221 5.00000E-01 5.00000E-01 8.00000E+00
 -1       222 7.50000E-01 5.00000E-01 5.00000E-01
 -1       223 7.50000E-01 5.00000E-01 0.00000E+00
 -1       224 7.50000E-01 5.00000E-01 1.00000E+00
 -1       225 7.50000E-01 5.00000E-01 1.50000E+00
 -1       226 7.50000E-01 5.00000E-01 2.00000E+00
 -1       227 7.50000E-01 5.00000E-01 2.50000E+00
 -1       228 7.50000E-01 5.00000E-01 3.00000E+00
 -1       229 7.50000E-01 5.00000E-01 3.50000E+00
 -1       230 7.50000E-01 5.00000E-01 4.00000E+00
 -1       231 7.50000E-01 5.00000E-01 4.50000E+00
 -1       232 7.50000E-01 5.00000E-01 5.00000E+00
 -1       233 7.50000E-01 5.00000E-01 5.50000E+00
 -1       234 7.50000E-01 5.00000E-01 6.00000E+00
 -1       235 7.50000E-01 5.00000E-01 6.50000E+00
 -1       236 7.50000E-01 5.00000E-01 7.00000E+00
 -1       237 7.50000E-01 5.00000E-01 7.50000E+00
 -1       238 7.50000E-01 5.00000E-01 8.00000E+00
 -1       239 1.00000E+00 5.00000E-01 5.00000E-01
 -1       240 1.00000E+00 5.00000E-01 0.00000E+00
 -1       241 1.00000E+00 5.00000E-01 1.00000E+00
 -1       242 1.00000E+00 5.00000E-01 1.50000E+00
 -1       243 1.00000E+00 5.00000E-01 2.00000E+00
 -1       244 1.00000E+00 5.00000E-01 2.50000E+00
 -1       245 1.00000E+00 5.00000E-01 3.00000E+00
 -1       246 1.00000E+00 5.00000E-01 3.50000E+00
 -1       247 1.00000E+00 5.00000E-01 4.00000E+00
 -1       248 1.00000E+00 5.00000E-01 4.50000E+00
 -1       249 1.00000E+00 5.00000E-01 5.00000E+00
 -1       250 1.00000E+00 5.00000E-01 5.50000E+00
 -1       251 1.00000E+00 5.00000E-01 6.00000E+00
 -1       252 1.00000E+00 5.00000E-01 6.50000E+00
 -1       253 1.00000E+00 5.00000E-01 7.00000E+00
 -1       254 1.00000E+00 5.00000E-01 7.50000E+00
 -1       255 1.00000E+00 5.00000E-01 8.00000E+00
 -1       256 0.00000E+00 2.50000E-01 5.00000E-01
 -1       257 0.00000E+00 2.50000E-01 0.00000E+00
 -1       258 2.50000E-01 2.50000E-01 5.00000E-01
 -1       259 2.50000E-01 2.50000E-01 0.00000E+00
 -1       260 0.00000E+00 2.50000E-01 1.00000E+00
 -1       261 2.50000E-01 2.50000E-01 1.00000E+00
 -1       262 0.00000E+00 2.50000E-01 1.50000E+00
 -1       263 2.50000E-01 2.50000E-01 1.50000E+00
 -1       264 0.00000E+00 2.50000E-01 2.00000E+00
 -1       265 2.50000E-01 2.50000E-01 2.00000E+00
 -1       266 0.00000E+00 2.50000E-01 2.50000E+00
 -1       267 2.50000E-01 2.50000E-01 2.50000E+00
 -1       268 0.00000E+00 2.50000E-01 3.00000E+00
 -1       269 2.50000E-01 2.50000E-01 3.00000E+00
 -1       270 0.00000E+00 2.50000E-01 3.50000E+00
 -1       271 2.50000E-01 2.50000E-01 3.50000E+00
 -1       272 0.00000E+00 2.50000E-01 4.00000E+00
 -1       273 2.50000E-01 2.50000E-01 4.00000E+00
 -1       274 0.00000E+00 2.50000E-01 4.50000E+00
 -1       275 2.50000E-01 2.50000E-01 4.50000E+00
 -1       276 0.00000E+00 2.50000E-01 5.00000E+00
 -1       277 2.50000E-01 2.50000E-01 5.00000E+00
 -1       278 0.00000E+00 2.50000E-01 5.50000E+00
 -1       279 2.50000E-01 2.50000E-01 5.50000E+00
 -1       280 0.00000E+00 2.50000E-01 6.00000E+00
 -1       281 2.50000E-01 2.50000E-01 6.00000E+00
 -1       282 0.00000E+00 2.50000E-01 6.50000E+00
 -1       283 2.50000E-01 2.50000E-01 6.50000E+00
 -1       284 0.00000E+00 2.50000E-01 7.00000E+00
 -1       285 2.50000E-01 2.50000E-01 7.00000E+00
 -1       286 0.00000E+00 2.50000E-01 7.50000E+00
 -1       287 2.50000E-01 2.50000E-01 7.50000E+00
 -1       288 0.00000E+00 2.50000E-01 8.00000E+00
 -1       289 2.50000E-01 2.50000E-01 8.00000E+00
 -1       290 5.00000E-01 2.50000E-01 5.00000E-01
 -1       291 5.00000E-01 2.50000E-01 0.00000E+00
 -1       292 5.00000E-01 2.50000E-01 1.00000E+00
 -1       293 5.00000E-01 2.50000E-01 1.50000E+00
 -1       294 5.00000E-01 2.50000E-01 2.00000E+00
 -1       295 5.00000E-01 2.50000E-01 2.50000E+00
 -1       296 5.00000E-01 2.50000E-01 3.00000E+00
 -1       297 5.00000E-01 2.50000E-01 3.50000E+00
 -1       298 5.00000E-01 2.50000E-01 4.00000E+00
 -1       299 5.00000E-01 2.50000E-01 4.50000E+00
 -1       300 5.00000E-01 2.50000E-01 5.00000E+00
 -1       301 5.00000E-01 2.50000E-01 5.50000E+00
 -1       302 5.00000E-01 2.50000E-01 6.00000E+00
 -1       303 5.00000E-01 2.50000E-01 6.50000E+00
 -1       304 5.00000E-01 2.50000E-01 7.00000E+00
 -1       305 5.00000E-01 2.50000E-01 7.50000E+00
 -1       306 5.00000E-01 2.50000E-01 8.00000E+00
 -1       307 7.50000E-01 2.50000E-01 5.00000E-01
 -1       308 7.50000E-01 2.50000E-01 0.00000E+00
 -1       309 7.50000E-01 2.50000E-01 1.00000E+00
 -1       310 7.50000E-01 2.50000E-01 1.50000E+00
 -1       311 7.50000E-01 2.50000E-01 2.00000E+00
 -1       312 7.50000E-01 2.50000E-01 2.50000E+00
 -1       313 7.50000E-01 2.50000E-01 3.00000E+00
 -1       314 7.50000E-01 2.50000E-01 3.50000E+00
 -1       315 7.50000E-01 2.50000E-01 4.00000E+00
 -1       316 7.50000E-01 2.50000E-01 4.50000E+00
 -1       317 7.50000E-01 2.50000E-01 5.00000E+00
 -1       318 7.50000E-01 2.50000E-01 5.50000E+00
 -1       319 7.50000E-01 2.50000E-01 6.00000E+00
 -1       320 7.50000E-01 2.50000E-01 6.50000E+00
 -1       321 7.50000E-01 2.50000E-01 7.00000E+00
 -1       322 7.50000E-01 2.50000E-01 7.50000E+00
 -1       323 7.50000E-01 2.50000E-01 8.00000E+00
 -1       324 1.00000E+00 2.50000E-01 5.00000E-01
 -1       325 1.00000E+00 2.50000E-01 0.00000E+00
 -1       326 1.00000E+00 2.50000E-01 1.00000E+00
 -1       327 1.00000E+00 2.50000E-01 1.50000E+00
 -1       328 1.00000E+00 2.50000E-01 2.00000E+00
 -1       329 1.00000E+00 2.50000E-01 2.50000E+00
 -1       330 1.00000E+00 2.50000E-01 3.00000E+00
 -1       331 1.00000E+00 2.50000E-01 3.50000E+00
 -1       332 1.00000E+00 2.50000E-01 4.00000E+00
 -1       333 1.00000E+00 2.50000E-01 4.50000E+00
 -1       334 1.00000E+00 2.50000E-01 5.00000E+00
 -1       335 1.00000E+00 2.50000E-01 5.50000E+00
 -1       336 1.00000E+00 2.50000E-01 6.00000E+00
 -1       337 1.00000E+00 2.50000E-01 6.50000E+00
 -1       338 1.00000E+00 2.50000E-01 7.00000E+00
 -1       339 1.00000E+00 2.50000E-01 7.50000E+00
 -1       340 1.00000E+00 2.50000E-01 8.00000E+00
 -1       341 0.00000E+00 0.00000E+00 5.00000E-01
 -1       342 0.00000E+00 0.00000E+00 0.00000E+00
 -1       343 2.50000E-01 0.00000E+00 5.00000E-01
 -1       344 2.50000E-01 0.00000E+00 0.00000E+00
 -1       345 0.00000E+00 0.00000E+00 1.00000E+00
 -1       346 2.50000E-01 0.00000E+00 1.00000E+00
 -1       347 0.00000E+00 0.00000E+00 1.50000E+00
 -1       348 2.50000E-01 0.00000E+00 1.50000E+00
 -1       349 0.00000E+00 0.00000E+00 2.00000E+00
 -1       350 2.50000E-01 0.00000E+00 2.00000E+00
 -1       351 0.00000E+00 0.00000E+00 2.50000E+00
 -1       352 2.50000E-01 0.00000E+00 2.50000E+00
 -1       353 0.00000E+00 0.00000E+00 3.00000E+00
 -1       354 2.50000E-01 0.00000E+00 3.00000E+00
 -1       355 0.00000E+00 0.00000E+00 3.50000E+00
 -1       356 2.50000E-01 0.00000E+00 3.50000E+00
 -1       357 0.00000E+00 0.00000E+00 4.00000E+00
 -1       358 2.50000E-01 0.00000E+00 4.00000E+00
 -1       359 0.00000E+00 0.00000E+00 4.50000E+00
 -1       360 2.50000E-01 0.00000E+00 4.50000E+00
 -1       361 0.00000E+00 0.00000E+00 5.00000E+00
 -1       362 2.50000E-01 0.00000E+00 5.00000E+00
 -1       363 0.00000E+00 0.00000E+00 5.50000E+00
 -1       364 2.50000E-01 0.00000E+00 5.50000E+00
 -1       365 0.00000E+00 0.00000E+00 6.00000E+00
 -1       366 2.50000E-01 0.00000E+00 6.00000E+00
 -1       367 0.00000E+00 0.00000E+00 6.50000E+00
 -1       368 2.50000E-01 0.00000E+00 6.50000E+00
 -1       369 0.00000E+00 0.00000E+00 7.00000E+00
 -1       370 2.50000E-01 0.00000E+00 7.00000E+00
 -1       371 0.00000E+00 0.00000E+00 7.50000E+00
 -1       372 2.50000E-01 0.00000E+00 7.50000E+00
 -1       373 0.00000E+00 0.00000E+00 8.00000E+00
 -1       374 2.50000E-01 0.00000E+00 8.00000E+00
 -1       375 5.00000E-01 0.00000E+00 5.00000E-01
 -1       376 5.00000E-01 0.00000E+00 0.00000E+00
 -1       377 5.00000E-01 0.00000E+00 1.00000E+00
 -1       378 5.00000E-01 0.00000E+00 1.50000E+00
 -1       379 5.00000E-01 0.00000E+00 2.00000E+00
 -1       380 5.00000E-01 0.00000E+00 2.50000E+00
 -1       381 5.00000E-01 0.00000E+00 3.00000E+00
 -1       382 5.00000E-01 0.00000E+00 3.50000E+00
 -1       383 5.00000E-01 0.00000E+00 4.00000E+00
 -1       384 5.00000E-01 0.00000E+00 4.50000E+00
 -1       385 5.00000E-01 0.00000E+00 5.00000E+00
 -1       386 5.00000E-01 0.00000E+00 5.50000E+00
 -1       387 5.00000E-01 0.00000E+00 6.00000E+00
 -1       388 5.00000E-01 0.00000E+00 6.50000E+00
 -1       389 5.00000E-01 0.00000E+00 7.00000E+00
 -1       390 5.00000E-01 0.00000E+00 7.50000E+00
 -1       391 5.00000E-01 0.00000E+00 8.00000E+00
 -1       392 7.50000E-01 0.00000E+00 5.00000E-01
 -1       393 7.50000E-01 0.00000E+00 0.00000E+00
 -1       394 7.50000E-01 0.00000E+00 1.00000E+00
 -1       395 7.50000E-01 0.00000E+00 1.50000E+00
 -1       396 7.50000E-01 0.00000E+00 2.00000E+00
 -1       397 7.50000E-01 0.00000E+00 2.50000E+00
 -1       398 7.50000E-01 0.00000E+00 3.00000E+00
 -1       399 7.50000E-01 0.00000E+00 3.50000E+00
 -1       400 7.50000E-01 0.00000E+00 4.00000E+00
 -1       401 7.50000E-01 0.00000E+00 4.50000E+00
 -1       402 7.50000E-01 0.00000E+00 5.00000E+00
 -1       403 7.50000E-01 0.00000E+00 5.50000E+00
 -1       404 7.50000E-01 0.00000E+00 6.00000E+00
 -1       405 7.50000E-01 0.00000E+00 6.50000E+00
 -1       406 7.50000E-01 0.00000E+00 7.00000E+00
 -1       407 7.50000E-01 0.00000E+00 7.50000E+00
 -1       408 7.50000E-01 0.00000E+00 8.00000E+00
 -1       409 1.00000E+00 0.00000E+00 5.00000E-01
 -1       410 1.00000E+00 0.00000E+00 0.00000E+00
 -1       411 1.00000E+00 0.00000E+00 1.00000E+00
 -1       412 1.00000E+00 0.00000E+00 1.50000E+00
 -1       413 1.00000E+00 0.00000E+00 2.00000E+00
 -1       414 1.00000E+00 0.00000E+00 2.50000E+00
 -1       415 1.00000E+00 0.00000E+00 3.00000E+00
 -1       416 1.00000E+00 0.00000E+00 3.50000E+00
 -1       417 1.00000E+00 0.00000E+00 4.00000E+00
 -1       418 1.00000E+00 0.00000E+00 4.50000E+00
 -1       419 1.00000E+00 0.00000E+00 5.00000E+00
 -1       420 1.00000E+00 0.00000E+00 5.50000E+00
 -1       421 1.00000E+00 0.00000E+00 6.00000E+00
 -1       422 1.00000E+00 0.00000E+00 6.50000E+00
 -1       423 1.00000E+00 0.00000E+00 7.00000E+00
 -1       424 1.00000E+00 0.00000E+00 7.50000E+00
 -1       425 1.00000E+00 0.00000E+00 8.00000E+00
 -3
    3C                           256                                     1
 -1         1    1    0    1
 -2         1         2         3         4         5         6         7         8
 -1         2    1    0    1
 -2         2         9        10         3         6        11        12         7
 -1         3    1    0    1
 -2         9        13        14        10        11        15        16        12
 -1         4    1    0    1
 -2        13        17        18        14        15        19        20        16
 -1         5    1    0    1
 -2        17        21        22        18        19        23        24        20
 -1         6    1    0    1
 -2        21        25        26        22        23        27        28        24
 -1         7    1    0    1
 -2        25        29        30        26        27        31        32        28
 -1         8    1    0    1
 -2        29        33        34        30        31        35        36        32
 -1         9    1    0    1
 -2        33        37        38        34        35        39        40        36
 -1        10    1    0    1
 -2        37        41        42        38        39        43        44        40
 -1        11    1    0    1
 -2        41        45        46        42        43        47        48        44
 -1        12    1    0    1
 -2        45        49        50        46        47        51        52        48
 -1        13    1    0    1
 -2        49        53        54        50        51        55        56        52
 -1        14    1    0    1
 -2        53        57        58        54        55        59        60        56
 -1        15    1    0    1
 -2        57        61        62        58        59        63        64        60
 -1        16    1    0    1
 -2        61        65        66        62        63        67        68        64
 -1        17    1    0    1
 -2         5         6         7         8        69        70        71        72
 -1        18    1    0    1
 -2         6        11        12         7        70        73        74        71
 -1        19    1    0    1
 -2        11        15        16        12        73        75        76        74
 -1        20    1    0    1
 -2        15        19        20        16        75        77        78        76
 -1        21    1    0    1
 -2        19        23        24        20        77        79        80        78
 -1        22    1    0    1
 -2        23        27        28        24        79        81        82        80
 -1        23    1    0    1
 -2        27        31        32        28        81        83        84        82
 -1        24    1    0    1
 -2        31        35        36        32        83        85        86        84
 -1        25    1    0    1
 -2        35        39        40        36        85        87        88        86
 -1        26    1    0    1
 -2        39        43        44        40        87        89        90        88
 -1        27    1    0    1
 -2        43        47        48        44        89        91        92        90
 -1        28    1    0    1
 -2        47        51        52        48        91        93        94        92
 -1        29    1    0    1
 -2        51        55        56        52        93        95        96        94
 -1        30    1    0    1
 -2        55        59        60        56        95        97        98        96
 -1        31    1    0    1
 -2        59        63        64        60        97        99       100        98
 -1        32    1    0    1
 -2        63        67        68        64        99       101       102       100
 -1        33    1    0    1
 -2        69        70        71        72       103       104       105       106
 -1        34    1    0    1
 -2        70        73        74        71       104       107       108       105
 -1        35    1    0    1
 -2        73        75        76        74       107       109       110       108
 -1        36    1    0    1
 -2        75        77        78        76       109       111       112       110
 -1        37    1    0    1
 -2        77        79        80        78       111       113       114       112
 -1        38    1    0    1
 -2        79        81        82        80       113       115       116       114
 -1        39    1    0    1
 -2        81        83        84        82       115       117       118       116
 -1        40    1    0    1
 -2        83        85        86        84       117       119       120       118
 -1        41    1    0    1
 -2        85        87        88        86       119       121       122       120
 -1        42    1    0    1
 -2        87        89        90        88       121       123       124       122
 -1        43    1    0    1
 -2        89        91        92        90       123       125       126       124
 -1        44    1    0    1
 -2        91        93        94        92       125       127       128       126
 -1        45    1    0    1
 -2        93        95        96        94       127       129       130       128
 -1        46    1    0    1
 -2        95        97        98        96       129       131       132       130
 -1        47    1    0    1
 -2        97        99       100        98       131       133       134       132
 -1        48    1    0    1
 -2        99       101       102       100       133       135       136       134
 -1        49    1    0    1
 -2       103       104       105       106       137       138       139       140
 -1        50    1    0    1
 -2       104       107       108       105       138       141       142       139
 -1        51    1    0    1
 -2       107       109       110       108       141       143       144       142
 -1        52    1    0    1
 -2       109       111       112       110       143       145       146       144
 -1        53    1    0    1
 -2       111       113       114       112       145       147       148       146
 -1        54    1    0    1
 -2       113       115       116       114       147       149       150       148
 -1        55    1    0    1
 -2       115       117       118       116       149       151       152       150
 -1        56    1    0    1
 -2       117       119       120       118       151       153       154       152
 -1        57    1    0    1
 -2       119       121       122       120       153       155       156       154
 -1        58    1    0    1
 -2       121       123       124       122       155       157       158       156
 -1        59    1    0    1
 -2       123       125       126       124       157       159       160       158
 -1        60    1    0    1
 -2       125       127       128       126       159       161       162       160
 -1        61    1    0    1
 -2       127       129       130       128       161       163       164       162
 -1        62    1    0    1
 -2       129       131       132       130       163       165       166       164
 -1        63    1    0    1
 -2       131       133       134       132       165       167       168       166
 -1        64    1    0    1
 -2       133       135       136       134       167       169       170       168
 -1        65    1    0    1
 -2         4         3       171       172         8         7       173       174
 -1        66    1    0    1
 -2         3        10       175       171         7        12       176       173
 -1        67    1    0    1
 -2        10        14       177       175        12        16       178       176
 -1        68    1    0    1
 -2        14        18       179       177        16        20       180       178
 -1        69    1    0    1
 -2        18        22       181       179        20        24       182       180
 -1        70    1    0    1