    1C
    1UModel: beam     Date: 10-Mar-1998                                 
    1UUSER                                                              
    1UDATE              19.july.2022                                    
    1UTIME              21:26:58                                        
    1UHOST                                                              
    1UPGM               CalculiX                                        
    1UVERSION           Version DEVELOPMENT                             
    1UCOMPILETIME       Tue Jul 19 21:11:38 CEST 2022                    
    1UDIR                                                               
    1UDBN                                                               
    1UMAT    1EL                                                        
    2C                           261                                     1
 -1         1 0.00000E+00 0.00000E+00 0.00000E+00
 -1         2 1.00000E+00 0.00000E+00 0.00000E+00
 -1         3 1.00000E+00 1.50000E+00 0.00000E+00
 -1         4 0.00000E+00 1.50000E+00 0.00000E+00
 -1         5 0.00000E+00 0.00000E+00 8.00000E+00
 -1         6 1.00000E+00 0.00000E+00 8.00000E+00
 -1         7 1.00000E+00 1.50000E+00 8.00000E+00
 -1         8 0.00000E+00 1.50000E+00 8.00000E+00
 -1         9 2.50000E-01 0.00000E+00 0.00000E+00
 -1        10 5.00000E-01 0.00000E+00 0.00000E+00
 -1        11 7.50000E-01 0.00000E+00 0.00000E+00
 -1        12 1.00000E+00 3.75000E-01 0.00000E+00
 -1        13 1.00000E+00 7.50000E-01 0.00000E+00
 -1        14 1.00000E+00 1.12500E+00 0.00000E+00
 -1        15 7.50000E-01 1.50000E+00 0.00000E+00
 -1        16 5.00000E-01 1.50000E+00 0.00000E+00
 -1        17 2.50000E-01 1.50000E+00 0.00000E+00
 -1        18 0.00000E+00 1.12500E+00 0.00000E+00
 -1        19 0.00000E+00 7.50000E-01 0.00000E+00
 -1        20 0.00000E+00 3.75000E-01 0.00000E+00
 -1        21 2.50000E-01 0.00000E+00 8.00000E+00
 -1        22 5.00000E-01 0.00000E+00 8.00000E+00
 -1        23 7.50000E-01 0.00000E+00 8.00000E+00
 -1        24 1.00000E+00 3.75000E-01 8.00000E+00
 -1        25 1.00000E+00 7.50000E-01 8.00000E+00
 -1        26 1.00000E+00 1.12500E+00 8.00000E+00
 -1        27 7.50000E-01 1.50000E+00 8.00000E+00
 -1        28 5.00000E-01 1.50000E+00 8.00000E+00
 -1        29 2.50000E-01 1.50000E+00 8.00000E+00
 -1        30 0.00000E+00 1.12500E+00 8.00000E+00
 -1        31 0.00000E+00 7.50000E-01 8.00000E+00
 -1        32 0.00000E+00 3.75000E-01 8.00000E+00
 -1        33 1.00000E+00 0.00000E+00 5.00000E-01
 -1        34 1.00000E+00 0.00000E+00 1.00000E+00
 -1        35 1.00000E+00 0.00000E+00 1.50000E+00
 -1        36 1.00000E+00 0.00000E+00 2.00000E+00
 -1        37 1.00000E+00 0.00000E+00 2.50000E+00
 -1        38 1.00000E+00 0.00000E+00 3.00000E+00
 -1        39 1.00000E+00 0.00000E+00 3.50000E+00
 -1        40 1.00000E+00 0.00000E+00 4.00000E+00
 -1        41 1.00000E+00 0.00000E+00 4.50000E+00
 -1        42 1.00000E+00 0.00000E+00 5.00000E+00
 -1        43 1.00000E+00 0.00000E+00 5.50000E+00
 -1        44 1.00000E+00 0.00000E+00 6.00000E+00
 -1        45 1.00000E+00 0.00000E+00 6.50000E+00
 -1        46 1.00000E+00 0.00000E+00 7.00000E+00
 -1        47 1.00000E+00 0.00000E+00 7.50000E+00
 -1        48 0.00000E+00 0.00000E+00 7.50000E+00
 -1        49 0.00000E+00 0.00000E+00 7.00000E+00
 -1        50 0.00000E+00 0.00000E+00 6.50000E+00
 -1        51 0.00000E+00 0.00000E+00 6.00000E+00
 -1        52 0.00000E+00 0.00000E+00 5.50000E+00
 -1        53 0.00000E+00 0.00000E+00 5.00000E+00
 -1        54 0.00000E+00 0.00000E+00 4.50000E+00
 -1        55 0.00000E+00 0.00000E+00 4.00000E+00
 -1        56 0.00000E+00 0.00000E+00 3.50000E+00
 -1        57 0.00000E+00 0.00000E+00 3.00000E+00
 -1        58 0.00000E+00 0.00000E+00 2.50000E+00
 -1        59 0.00000E+00 0.00000E+00 2.00000E+00
 -1        60 0.00000E+00 0.00000E+00 1.50000E+00
 -1        61 0.00000E+00 0.00000E+00 1.00000E+00
 -1        62 0.00000E+00 0.00000E+00 5.00000E-01
 -1        63 1.00000E+00 1.50000E+00 5.00000E-01
 -1        64 1.00000E+00 1.50000E+00 1.00000E+00
 -1        65 1.00000E+00 1.50000E+00 1.50000E+00
 -1        66 1.00000E+00 1.50000E+00 2.00000E+00
 -1        67 1.00000E+00 1.50000E+00 2.50000E+00
 -1        68 1.00000E+00 1.50000E+00 3.00000E+00
 -1        69 1.00000E+00 1.50000E+00 3.50000E+00
 -1        70 1.00000E+00 1.50000E+00 4.00000E+00
 -1        71 1.00000E+00 1.50000E+00 4.50000E+00
 -1        72 1.00000E+00 1.50000E+00 5.00000E+00
 -1        73 1.00000E+00 1.50000E+00 5.50000E+00
 -1        74 1.00000E+00 1.50000E+00 6.00000E+00
 -1        75 1.00000E+00 1.50000E+00 6.50000E+00
 -1        76 1.00000E+00 1.50000E+00 7.00000E+00
 -1        77 1.00000E+00 1.50000E+00 7.50000E+00
 -1        78 0.00000E+00 1.50000E+00 5.00000E-01
 -1        79 0.00000E+00 1.50000E+00 1.00000E+00
 -1        80 0.00000E+00 1.50000E+00 1.50000E+00
 -1        81 0.00000E+00 1.50000E+00 2.00000E+00
 -1        82 0.00000E+00 1.50000E+00 2.50000E+00
 -1        83 0.00000E+00 1.50000E+00 3.00000E+00
 -1        84 0.00000E+00 1.50000E+00 3.50000E+00
 -1        85 0.00000E+00 1.50000E+00 4.00000E+00
 -1        86 0.00000E+00 1.50000E+00 4.50000E+00
 -1        87 0.00000E+00 1.50000E+00 5.00000E+00
 -1        88 0.00000E+00 1.50000E+00 5.50000E+00
 -1        89 0.00000E+00 1.50000E+00 6.00000E+00
 -1        90 0.00000E+00 1.50000E+00 6.50000E+00
 -1        91 0.00000E+00 1.50000E+00 7.00000E+00
 -1        92 0.00000E+00 1.50000E+00 7.50000E+00
 -1        93 5.00000E-01 3.75000E-01 0.00000E+00
 -1        94 2.50000E-01 7.50000E-01 0.00000E+00
 -1        95 5.00000E-01 7.50000E-01 0.00000E+00
 -1        96 7.50000E-01 7.50000E-01 0.00000E+00
 -1        97 5.00000E-01 1.12500E+00 0.00000E+00
 -1        98 5.00000E-01 3.75000E-01 8.00000E+00
 -1        99 2.50000E-01 7.50000E-01 8.00000E+00
 -1       100 5.00000E-01 7.50000E-01 8.00000E+00
 -1       101 7.50000E-01 7.50000E-01 8.00000E+00
 -1       102 5.00000E-01 1.12500E+00 8.00000E+00
 -1       103 5.00000E-01 0.00000E+00 5.00000E-01
 -1       104 2.50000E-01 0.00000E+00 1.00000E+00
 -1       105 5.00000E-01 0.00000E+00 1.00000E+00
 -1       106 7.50000E-01 0.00000E+00 1.00000E+00
 -1       107 5.00000E-01 0.00000E+00 1.50000E+00
 -1       108 2.50000E-01 0.00000E+00 2.00000E+00
 -1       109 5.00000E-01 0.00000E+00 2.00000E+00
 -1       110 7.50000E-01 0.00000E+00 2.00000E+00
 -1       111 5.00000E-01 0.00000E+00 2.50000E+00
 -1       112 2.50000E-01 0.00000E+00 3.00000E+00
 -1       113 5.00000E-01 0.00000E+00 3.00000E+00
 -1       114 7.50000E-01 0.00000E+00 3.00000E+00
 -1       115 5.00000E-01 0.00000E+00 3.50000E+00
 -1       116 2.50000E-01 0.00000E+00 4.00000E+00
 -1       117 5.00000E-01 0.00000E+00 4.00000E+00
 -1       118 7.50000E-01 0.00000E+00 4.00000E+00
 -1       119 5.00000E-01 0.00000E+00 4.50000E+00
 -1       120 2.50000E-01 0.00000E+00 5.00000E+00
 -1       121 5.00000E-01 0.00000E+00 5.00000E+00
 -1       122 7.50000E-01 0.00000E+00 5.00000E+00
 -1       123 5.00000E-01 0.00000E+00 5.50000E+00
 -1       124 2.50000E-01 0.00000E+00 6.00000E+00
 -1       125 5.00000E-01 0.00000E+00 6.00000E+00
 -1       126 7.50000E-01 0.00000E+00 6.00000E+00
 -1       127 5.00000E-01 0.00000E+00 6.50000E+00
 -1       128 2.50000E-01 0.00000E+00 7.00000E+00
 -1       129 5.00000E-01 0.00000E+00 7.00000E+00
 -1       130 7.50000E-01 0.00000E+00 7.00000E+00
 -1       131 5.00000E-01 0.00000E+00 7.50000E+00
 -1       132 1.00000E+00 7.50000E-01 5.00000E-01
 -1       133 1.00000E+00 3.75000E-01 1.00000E+00
 -1       134 1.00000E+00 7.50000E-01 1.00000E+00
 -1       135 1.00000E+00 1.12500E+00 1.00000E+00
 -1       136 1.00000E+00 7.50000E-01 1.50000E+00
 -1       137 1.00000E+00 3.75000E-01 2.00000E+00
 -1       138 1.00000E+00 7.50000E-01 2.00000E+00
 -1       139 1.00000E+00 1.12500E+00 2.00000E+00
 -1       140 1.00000E+00 7.50000E-01 2.50000E+00
 -1       141 1.00000E+00 3.75000E-01 3.00000E+00
 -1       142 1.00000E+00 7.50000E-01 3.00000E+00
 -1       143 1.00000E+00 1.12500E+00 3.00000E+00
 -1       144 1.00000E+00 7.50000E-01 3.50000E+00
 -1       145 1.00000E+00 3.75000E-01 4.00000E+00
 -1       146 1.00000E+00 7.50000E-01 4.00000E+00
 -1       147 1.00000E+00 1.12500E+00 4.00000E+00
 -1       148 1.00000E+00 7.50000E-01 4.50000E+00
 -1       149 1.00000E+00 3.75000E-01 5.00000E+00
 -1       150 1.00000E+00 7.50000E-01 5.00000E+00
 -1       151 1.00000E+00 1.12500E+00 5.00000E+00
 -1       152 1.00000E+00 7.50000E-01 5.50000E+00
 -1       153 1.00000E+00 3.75000E-01 6.00000E+00
 -1       154 1.00000E+00 7.50000E-01 6.00000E+00
 -1       155 1.00000E+00 1.12500E+00 6.00000E+00
 -1       156 1.00000E+00 7.50000E-01 6.50000E+00
 -1       157 1.00000E+00 3.75000E-01 7.00000E+00
 -1       158 1.00000E+00 7.50000E-01 7.00000E+00
 -1       159 1.00000E+00 1.12500E+00 7.00000E+00
 -1       160 1.00000E+00 7.50000E-01 7.50000E+00
 -1       161 5.00000E-01 1.50000E+00 5.00000E-01
 -1       162 7.50000E-01 1.50000E+00 1.00000E+00
 -1       163 5.00000E-01 1.50000E+00 1.00000E+00
 -1       164 2.50000E-01 1.50000E+00 1.00000E+00
 -1       165 5.00000E-01 1.50000E+00 1.50000E+00
 -1       166 7.50000E-01 1.50000E+00 2.00000E+00
 -1       167 5.00000E-01 1.50000E+00 2.00000E+00
 -1       168 2.50000E-01 1.50000E+00 2.00000E+00
 -1       169 5.00000E-01 1.50000E+00 2.50000E+00
 -1       170 7.50000E-01 1.50000E+00 3.00000E+00
 -1       171 5.00000E-01 1.50000E+00 3.00000E+00
 -1       172 2.50000E-01 1.50000E+00 3.00000E+00
 -1       173 5.00000E-01 1.50000E+00 3.50000E+00
 -1       174 7.50000E-01 1.50000E+00 4.00000E+00
 -1       175 5.00000E-01 1.50000E+00 4.00000E+00
 -1       176 2.50000E-01 1.50000E+00 4.00000E+00
 -1       177 5.00000E-01 1.50000E+00 4.50000E+00
 -1       178 7.50000E-01 1.50000E+00 5.00000E+00
 -1       179 5.00000E-01 1.50000E+00 5.00000E+00
 -1       180 2.50000E-01 1.50000E+00 5.00000E+00
 -1       181 5.00000E-01 1.50000E+00 5.50000E+00
 -1       182 7.50000E-01 1.50000E+00 6.00000E+00
 -1       183 5.00000E-01 1.50000E+00 6.00000E+00
 -1       184 2.50000E-01 1.50000E+00 6.00000E+00
 -1       185 5.00000E-01 1.50000E+00 6.50000E+00
 -1       186 7.50000E-01 1.50000E+00 7.00000E+00
 -1       187 5.00000E-01 1.50000E+00 7.00000E+00
 -1       188 2.50000E-01 1.50000E+00 7.00000E+00
 -1       189 5.00000E-01 1.50000E+00 7.50000E+00
 -1       190 0.00000E+00 7.50000E-01 5.00000E-01
 -1       191 0.00000E+00 1.12500E+00 1.00000E+00
 -1       192 0.00000E+00 7.50000E-01 1.00000E+00
 -1       193 0.00000E+00 3.75000E-01 1.00000E+00
 -1       194 0.00000E+00 7.50000E-01 1.50000E+00
 -1       195 0.00000E+00 1.12500E+00 2.00000E+00
 -1       196 0.00000E+00 7.50000E-01 2.00000E+00
 -1       197 0.00000E+00 3.75000E-01 2.00000E+00
 -1       198 0.00000E+00 7.50000E-01 2.50000E+00
 -1       199 0.00000E+00 1.12500E+00 3.00000E+00
 -1       200 0.00000E+00 7.50000E-01 3.00000E+00
 -1       201 0.00000E+00 3.75000E-01 3.00000E+00
 -1       202 0.00000E+00 7.50000E-01 3.50000E+00
 -1       203 0.00000E+00 1.12500E+00 4.00000E+00
 -1       204 0.00000E+00 7.50000E-01 4.00000E+00
 -1       205 0.00000E+00 3.75000E-01 4.00000E+00
 -1       206 0.00000E+00 7.50000E-01 4.50000E+00
 -1       207 0.00000E+00 1.12500E+00 5.00000E+00
 -1       208 0.00000E+00 7.50000E-01 5.00000E+00
 -1       209 0.00000E+00 3.75000E-01 5.00000E+00
 -1       210 0.00000E+00 7.50000E-01 5.50000E+00
 -1       211 0.00000E+00 1.12500E+00 6.00000E+00
 -1       212 0.00000E+00 7.50000E-01 6.00000E+00
 -1       213 0.00000E+00 3.75000E-01 6.00000E+00
 -1       214 0.00000E+00 7.50000E-01 6.50000E+00
 -1       215 0.00000E+00 1.12500E+00 7.00000E+00
 -1       216 0.00000E+00 7.50000E-01 7.00000E+00
 -1       217 0.00000E+00 3.75000E-01 7.00000E+00
 -1       218 0.00000E+00 7.50000E-01 7.50000E+00
 -1       219 5.00000E-01 7.50000E-01 5.00000E-01
 -1       220 5.00000E-01 3.75000E-01 1.00000E+00
 -1       221 2.50000E-01 7.50000E-01 1.00000E+00
 -1       222 5.00000E-01 7.50000E-01 1.00000E+00
 -1       223 7.50000E-01 7.50000E-01 1.00000E+00
 -1       224 5.00000E-01 1.12500E+00 1.00000E+00
 -1       225 5.00000E-01 7.50000E-01 1.50000E+00
 -1       226 5.00000E-01 3.75000E-01 2.00000E+00
 -1       227 2.50000E-01 7.50000E-01 2.00000E+00
 -1       228 5.00000E-01 7.50000E-01 2.00000E+00
 -1       229 7.50000E-01 7.50000E-01 2.00000E+00
 -1       230 5.00000E-01 1.12500E+00 2.00000E+00
 -1       231 5.00000E-01 7.50000E-01 2.50000E+00
 -1       232 5.00000E-01 3.75000E-01 3.00000E+00
 -1       233 2.50000E-01 7.50000E-01 3.00000E+00
 -1       234 5.00000E-01 7.50000E-01 3.00000E+00
 -1       235 7.50000E-01 7.50000E-01 3.00000E+00
 -1       236 5.00000E-01 1.12500E+00 3.00000E+00
 -1       237 5.00000E-01 7.50000E-01 3.50000E+00
 -1       238 5.00000E-01 3.75000E-01 4.00000E+00
 -1       239 2.50000E-01 7.50000E-01 4.00000E+00
 -1       240 5.00000E-01 7.50000E-01 4.00000E+00
 -1       241 7.50000E-01 7.50000E-01 4.00000E+00
 -1       242 5.00000E-01 1.12500E+00 4.00000E+00
 -1       243 5.00000E-01 7.50000E-01 4.50000E+00
 -1       244 5.00000E-01 3.75000E-01 5.00000E+00
 -1       245 2.50000E-01 7.50000E-01 5.00000E+00
 -1       246 5.00000E-01 7.50000E-01 5.00000E+00
 -1       247 7.50000E-01 7.50000E-01 5.00000E+00
 -1       248 5.00000E-01 1.12500E+00 5.00000E+00
 -1       249 5.00000E-01 7.50000E-01 5.50000E+00
 -1       250 5.00000E-01 3.75000E-01 6.00000E+00
 -1       251 2.50000E-01 7.50000E-01 6.00000E+00
 -1       252 5.00000E-01 7.50000E-01 6.00000E+00
 -1       253 7.50000E-01 7.50000E-01 6.00000E+00
 -1       254 5.00000E-01 1.12500E+00 6.00000E+00
 -1       255 5.00000E-01 7.50000E-01 6.50000E+00
 -1       256 5.00000E-01 3.75000E-01 7.00000E+00
 -1       257 2.50000E-01 7.50000E-01 7.00000E+00
 -1       258 5.00000E-01 7.50000E-01 7.00000E+00
 -1       259 7.50000E-01 7.50000E-01 7.00000E+00
 -1       260 5.00000E-01 1.12500E+00 7.00000E+00
 -1       261 5.00000E-01 7.50000E-01 7.50000E+00
 -3
    3C                            32                                     1
 -1         1    4    0    1
 -2         1        10        95        19        61       105       222       192         9        93
 -2        94        20        62       103       219       190       104       220       221       193
 -1         2    4    0    1
 -2        10         2        13        95       105        34       134       222        11        12
 -2        96        93       103        33       132       219       106       133       223       220
 -1         3    4    0    1
 -2        19        95        16         4       192       222       163        79        94        97
 -2        17        18       190       219       161        78       221       224       164       191
 -1         4    4    0    1
 -2        95        13         3        16       222       134        64       163        96        14
 -2        15        97       219       132        63       161       223       135       162       224
 -1         5    4    0    1
 -2        61       105       222       192        59       109       228       196       104       220
 -2       221       193        60       107       225       194       108       226       227       197
 -1         6    4    0    1
 -2       105        34       134       222       109        36       138       228       106       133
 -2       223       220       107        35       136       225       110       137       229       226
 -1         7    4    0    1
 -2       192       222       163        79       196       228       167        81       221       224
 -2       164       191       194       225       165        80       227       230       168       195
 -1         8    4    0    1
 -2       222       134        64       163       228       138        66       167       223       135
 -2       162       224       225       136        65       165       229       139       166       230
 -1         9    4    0    1
 -2        59       109       228       196        57       113       234       200       108       226
 -2       227       197        58       111       231       198       112       232       233       201
 -1        10    4    0    1
 -2       109        36       138       228       113        38       142       234       110       137
 -2       229       226       111        37       140       231       114       141       235       232
 -1        11    4    0    1
 -2       196       228       167        81       200       234       171        83       227       230
 -2       168       195       198       231       169        82       233       236       172       199
 -1        12    4    0    1
 -2       228       138        66       167       234       142        68       171       229       139
 -2       166       230       231       140        67       169       235       143       170       236
 -1        13    4    0    1
 -2        57       113       234       200        55       117       240       204       112       232
 -2       233       201        56       115       237       202       116       238       239       205
 -1        14    4    0    1
 -2       113        38       142       234       117        40       146       240       114       141
 -2       235       232       115        39       144       237       118       145       241       238
 -1        15    4    0    1
 -2       200       234       171        83       204       240       175        85       233       236
 -2       172       199       202       237       173        84       239       242       176       203
 -1        16    4    0    1
 -2       234       142        68       171       240       146        70       175       235       143
 -2       170       236       237       144        69       173       241       147       174       242
 -1        17    4    0    1
 -2        55       117       240       204        53       121       246       208       116       238
 -2       239       205        54       119       243       206       120       244       245       209
 -1        18    4    0    1
 -2       117        40       146       240       121        42       150       246       118       145
 -2       241       238       119        41       148       243       122       149       247       244
 -1        19    4    0    1
 -2       204       240       175        85       208       246       179        87       239       242
 -2       176       203       206       243       177        86       245       248       180       207
 -1        20    4    0    1
 -2       240       146        70       175       246       150        72       179       241       147
 -2       174       242       243       148        71       177       247       151       178       248
 -1        21    4    0    1
 -2        53       121       246       208        51       125       252       212       120       244
 -2       245       209        52       123       249       210       124       250       251       213
 -1        22    4    0    1
 -2       121        42       150       246       125        44       154       252       122       149
 -2       247       244       123        43       152       249       126       153       253       250
 -1        23    4    0    1
 -2       208       246       179        87       212       252       183        89       245       248
 -2       180       207       210       249       181        88       251       254       184       211
 -1        24    4    0    1
 -2       246       150        72       179       252       154        74       183       247       151
 -2       178       248       249       152        73       181       253       155       182       254
 -1        25    4    0    1
 -2        51       125       252       212        49       129       258       216       124       250
 -2       251       213        50       127       255       214       128       256       257       217
 -1        26    4    0    1
 -2       125        44       154       252       129        46       158       258       126       153
 -2       253       250       127        45       156       255       130       157       259       256
 -1        27    4    0    1
 -2       212       252       183        89       216       258       187        91       251       254
 -2       184       211       214       255       185        90       257       260       188       215
 -1        28    4    0    1
 -2       252       154        74       183       258       158        76       187       253       155
 -2       182       254       255       156        75       185       259       159       186       260
 -1        29    4    0    1
 -2        49       129       258       216         5        22       100        31       128       256
 -2       257       217        48       131       261       218        21        98        99        32
 -1        30    4    0    1
 -2       129        46       158       258        22         6        25       100       130       157
 -2       259       256       131        47       160       261        23        24       101        98
 -1        31    4    0    1
 -2       216       258       187        91        31       100        28         8       257       260
 -2       188       215       218       261       189        92        99       102        29        30
 -1        32    4    0    1
 -2       258       158        76       187       100        25         7        28       259       159
 -2       186       260       261       160        77       189       101        26        27       102
 -3
    1PSTEP                         1           1           1          
  100CL  101 5.00000E-07         261                     1    1           1
 -4  ENER        1    1
 -5  ENER        1    1    0    0
 -1         1 1.41599E-10
 -1         2 1.41599E-10
 -1         3 1.41599E-10
 -1         4 1.41599E-10
 -1         5 5.36976E-06
 -1         6 5.36976E-06
 -1         7 5.36976E-06
 -1         8 5.36976E-06
 -1         9 1.38843E-10
 -1        10 1.36087E-10
 -1        11 1.38843E-10
 -1        12 1.36096E-10
 -1        13 1.30592E-10
 -1        14 1.36096E-10
 -1        15 1.38843E-10
 -1        16 1.36087E-10
 -1        17 1.38843E-10
 -1        18 1.36096E-10
 -1        19 1.30592E-10
 -1        20 1.36096E-10
 -1        21 5.32704E-06
 -1        22 5.28433E-06
 -1        23 5.32704E-06
 -1        24 5.30065E-06
 -1        25 5.23155E-06
 -1        26 5.30065E-06
 -1        27 5.32704E-06
 -1        28 5.28433E-06
 -1        29 5.32704E-06
 -1        30 5.30065E-06
 -1        31 5.23155E-06
 -1        32 5.30065E-06
 -1        33 1.92398E-10
 -1        34 2.24975E-10
 -1        35 4.95998E-10
 -1        36 6.99953E-10
 -1        37 1.91962E-09
 -1        38 2.84098E-09
 -1        39 8.29697E-09
 -1        40 1.24324E-08
 -1        41 3.67610E-08
 -1        42 5.50609E-08
 -1        43 1.64117E-07
 -1        44 2.47345E-07
 -1        45 7.29789E-07
 -1        46 1.11602E-06
 -1        47 3.17800E-06
 -1        48 3.17800E-06
 -1        49 1.11602E-06
 -1        50 7.29789E-07
 -1        51 2.47345E-07
 -1        52 1.64117E-07
 -1        53 5.50609E-08
 -1        54 3.67610E-08
 -1        55 1.24324E-08
 -1        56 8.29697E-09
 -1        57 2.84098E-09
 -1        58 1.91962E-09
 -1        59 6.99953E-10
 -1        60 4.95998E-10
 -1        61 2.24975E-10
 -1        62 1.92398E-10
 -1        63 1.92398E-10
 -1        64 2.24975E-10
 -1        65 4.95998E-10
 -1        66 6.99953E-10
 -1        67 1.91962E-09
 -1        68 2.84098E-09
 -1        69 8.29697E-09
 -1        70 1.24324E-08
 -1        71 3.67610E-08
 -1        72 5.50609E-08
 -1        73 1.64117E-07
 -1        74 2.47345E-07
 -1        75 7.29789E-07
 -1        76 1.11602E-06
 -1        77 3.17800E-06
 -1        78 1.92398E-10
 -1        79 2.24975E-10
 -1        80 4.95998E-10
 -1        81 6.99953E-10
 -1        82 1.91962E-09
 -1        83 2.84098E-09
 -1        84 8.29697E-09
 -1        85 1.24324E-08
 -1        86 3.67610E-08
 -1        87 5.50609E-08
 -1        88 1.64117E-07
 -1        89 2.47345E-07
 -1        90 7.29789E-07
 -1        91 1.11602E-06
 -1        92 3.17800E-06
 -1        93 1.30660E-10
 -1        94 1.27912E-10
 -1        95 1.25232E-10
 -1        96 1.27912E-10
 -1        97 1.30660E-10
 -1        98 5.19602E-06
 -1        99 5.16963E-06
 -1       100 5.10772E-06
 -1       101 5.16963E-06
 -1       102 5.19602E-06
 -1       103 1.84928E-10
 -1       104 2.20604E-10
 -1       105 2.16232E-10
 -1       106 2.20604E-10
 -1       107 4.76720E-10
 -1       108 6.86319E-10
 -1       109 6.72686E-10
 -1       110 6.86319E-10
 -1       111 1.84512E-09
 -1       112 2.78611E-09
 -1       113 2.73123E-09
 -1       114 2.78611E-09
 -1       115 7.97339E-09
 -1       116 1.21927E-08
 -1       117 1.19531E-08
 -1       118 1.21927E-08
 -1       119 3.53281E-08
 -1       120 5.40424E-08
 -1       121 5.30239E-08
 -1       122 5.40424E-08
 -1       123 1.57602E-07
 -1       124 2.42802E-07
 -1       125 2.38258E-07
 -1       126 2.42802E-07
 -1       127 7.01913E-07
 -1       128 1.08685E-06
 -1       129 1.05767E-06
 -1       130 1.08685E-06
 -1       131 3.10144E-06
 -1       132 1.77500E-10
 -1       133 2.16277E-10
 -1       134 2.07579E-10
 -1       135 2.16277E-10
 -1       136 4.57544E-10
 -1       137 6.72582E-10
 -1       138 6.45212E-10
 -1       139 6.72582E-10
 -1       140 1.77124E-09
 -1       141 2.73244E-09
 -1       142 2.62390E-09
 -1       143 2.73244E-09
 -1       144 7.65138E-09
 -1       145 1.19382E-08
 -1       146 1.14440E-08
 -1       147 1.19382E-08
 -1       148 3.39342E-08
 -1       149 5.30330E-08
 -1       150 5.10050E-08
 -1       151 5.30330E-08
 -1       152 1.51221E-07
 -1       153 2.36730E-07
 -1       154 2.26114E-07
 -1       155 2.36730E-07
 -1       156 6.76677E-07
 -1       157 1.07046E-06
 -1       158 1.02490E-06
 -1       159 1.07046E-06
 -1       160 3.06089E-06
 -1       161 1.84928E-10
 -1       162 2.20604E-10
 -1       163 2.16232E-10
 -1       164 2.20604E-10
 -1       165 4.76720E-10
 -1       166 6.86319E-10
 -1       167 6.72686E-10
 -1       168 6.86319E-10
 -1       169 1.84512E-09
 -1       170 2.78611E-09
 -1       171 2.73123E-09
 -1       172 2.78611E-09
 -1       173 7.97339E-09
 -1       174 1.21927E-08
 -1       175 1.19531E-08
 -1       176 1.21927E-08
 -1       177 3.53281E-08
 -1       178 5.40424E-08
 -1       179 5.30239E-08
 -1       180 5.40424E-08
 -1       181 1.57602E-07
 -1       182 2.42802E-07
 -1       183 2.38258E-07
 -1       184 2.42802E-07
 -1       185 7.01913E-07
 -1       186 1.08685E-06
 -1       187 1.05767E-06
 -1       188 1.08685E-06
 -1       189 3.10144E-06
 -1       190 1.77500E-10
 -1       191 2.16277E-10
 -1       192 2.07579E-10
 -1       193 2.16277E-10
 -1       194 4.57544E-10
 -1       195 6.72582E-10
 -1       196 6.45212E-10
 -1       197 6.72582E-10
 -1       198 1.77124E-09
 -1       199 2.73244E-09
 -1       200 2.62390E-09
 -1       201 2.73244E-09
 -1       202 7.65138E-09
 -1       203 1.19382E-08
 -1       204 1.14440E-08
 -1       205 1.19382E-08
 -1       206 3.39342E-08
 -1       207 5.30330E-08
 -1       208 5.10050E-08
 -1       209 5.30330E-08
 -1       210 1.51221E-07
 -1       211 2.36730E-07
 -1       212 2.26114E-07
 -1       213 2.36730E-07
 -1       214 6.76677E-07
 -1       215 1.07046E-06
 -1       216 1.02490E-06
 -1       217 1.07046E-06
 -1       218 3.06089E-06
 -1       219 1.70260E-10
 -1       220 2.07645E-10
 -1       221 2.03318E-10
 -1       222 1.99058E-10
 -1       223 2.03318E-10
 -1       224 2.07645E-10
 -1       225 4.38902E-10
 -1       226 6.45610E-10
 -1       227 6.31873E-10
 -1       228 6.18533E-10
 -1       229 6.31873E-10
 -1       230 6.45610E-10
 -1       231 1.69913E-09
 -1       232 2.62360E-09
 -1       233 2.56993E-09
 -1       234 2.51597E-09
 -1       235 2.56993E-09
 -1       236 2.62360E-09
 -1       237 7.33998E-09
 -1       238 1.14615E-08
 -1       239 1.12070E-08
 -1       240 1.09699E-08
 -1       241 1.12070E-08
 -1       242 1.14615E-08
 -1       243 3.25472E-08
 -1       244 5.10077E-08
 -1       245 4.99982E-08
 -1       246 4.89914E-08
 -1       247 4.99982E-08
 -1       248 5.10077E-08
 -1       249 1.44969E-07
 -1       250 2.27853E-07
 -1       251 2.21781E-07
 -1       252 2.17448E-07
 -1       253 2.21781E-07
 -1       254 2.27853E-07
 -1       255 6.48561E-07
 -1       256 1.01480E-06
 -1       257 9.98416E-07
 -1       258 9.71927E-07
 -1       259 9.98416E-07
 -1       260 1.01480E-06
 -1       261 2.97087E-06
 -3
    1PSTEP                         2           2           1          
  100CL  102 1.00000E-06         261                     1    2           1
 -4  ENER        1    1
 -5  ENER        1    1    0    0
 -1         1 2.62912E-08
 -1         2 2.62912E-08
 -1         3 2.62912E-08
 -1         4 2.62912E-08
 -1         5 2.55527E-05
 -1         6 2.55527E-05
 -1         7 2.55527E-05
 -1         8 2.55527E-05
 -1         9 2.59131E-08
 -1        10 2.55349E-08
 -1        11 2.59131E-08
 -1        12 2.55075E-08
 -1        13 2.47237E-08
 -1        14 2.55075E-08
 -1        15 2.59131E-08
 -1        16 2.55349E-08
 -1        17 2.59131E-08
 -1        18 2.55075E-08
 -1        19 2.47237E-08
 -1        20 2.55075E-08
 -1        21 2.56573E-05
 -1        22 2.57620E-05
 -1        23 2.56573E-05
 -1        24 2.57157E-05
 -1        25 2.58787E-05
 -1        26 2.57157E-05
 -1        27 2.56573E-05
 -1        28 2.57620E-05
 -1        29 2.56573E-05
 -1        30 2.57157E-05
 -1        31 2.58787E-05
 -1        32 2.57157E-05
 -1        33 3.25085E-08
 -1        34 3.73915E-08
 -1        35 6.52473E-08
 -1        36 8.99253E-08
 -1        37 1.84040E-07
 -1        38 2.69748E-07
 -1        39 5.65270E-07
 -1        40 8.41955E-07
 -1        41 1.69757E-06
 -1        42 2.52928E-06
 -1        43 4.70980E-06
 -1        44 6.93671E-06
 -1        45 1.13460E-05
 -1        46 1.61206E-05