
                        S T E P       1


                                INCREMENT     6


 displacements (vx,vy,vz) for set N1 and time  0.1000000E-03

       100  1.732329E-17 -5.933434E-02 -5.741104E-19
