
                        S T E P       1


                                INCREMENT     6


 displacements (vx,vy,vz) for set N1 and time  0.1000000E-03

       100 -6.594542E-17 -5.951123E-02  1.307736E-17
