    1C
    1UModel: beam     Date: 10-Mar-1998                                 
    1UUSER                                                              
    1UDATE              22.february.2024                                
    1UTIME              13:37:20                                        
    1UHOST                                                              
    1UPGM               CalculiX                                        
    1UVERSION           Version DEVELOPMENT                             
    1UCOMPILETIME       Thu 22 Feb 2024 09:48:29 AM CET                    
    1UDIR                                                               
    1UDBN                                                               
    1UMAT    1EL                                                        
    2C                            81                                     1
 -1         1 0.00000E+00 0.00000E+00 0.00000E+00
 -1         2 1.00000E+00 0.00000E+00 0.00000E+00
 -1         3 1.00000E+00 1.50000E+00 0.00000E+00
 -1         4 0.00000E+00 1.50000E+00 0.00000E+00
 -1         5 0.00000E+00 0.00000E+00 8.00000E+00
 -1         6 1.00000E+00 0.00000E+00 8.00000E+00
 -1         7 1.00000E+00 1.50000E+00 8.00000E+00
 -1         8 0.00000E+00 1.50000E+00 8.00000E+00
 -1        10 5.00000E-01 0.00000E+00 0.00000E+00
 -1        13 1.00000E+00 7.50000E-01 0.00000E+00
 -1        16 5.00000E-01 1.50000E+00 0.00000E+00
 -1        19 0.00000E+00 7.50000E-01 0.00000E+00
 -1        22 5.00000E-01 0.00000E+00 8.00000E+00
 -1        25 1.00000E+00 7.50000E-01 8.00000E+00
 -1        28 5.00000E-01 1.50000E+00 8.00000E+00
 -1        31 0.00000E+00 7.50000E-01 8.00000E+00
 -1        34 1.00000E+00 0.00000E+00 1.00000E+00
 -1        36 1.00000E+00 0.00000E+00 2.00000E+00
 -1        38 1.00000E+00 0.00000E+00 3.00000E+00
 -1        40 1.00000E+00 0.00000E+00 4.00000E+00
 -1        42 1.00000E+00 0.00000E+00 5.00000E+00
 -1        44 1.00000E+00 0.00000E+00 6.00000E+00
 -1        46 1.00000E+00 0.00000E+00 7.00000E+00
 -1        49 0.00000E+00 0.00000E+00 7.00000E+00
 -1        51 0.00000E+00 0.00000E+00 6.00000E+00
 -1        53 0.00000E+00 0.00000E+00 5.00000E+00
 -1        55 0.00000E+00 0.00000E+00 4.00000E+00
 -1        57 0.00000E+00 0.00000E+00 3.00000E+00
 -1        59 0.00000E+00 0.00000E+00 2.00000E+00
 -1        61 0.00000E+00 0.00000E+00 1.00000E+00
 -1        64 1.00000E+00 1.50000E+00 1.00000E+00
 -1        66 1.00000E+00 1.50000E+00 2.00000E+00
 -1        68 1.00000E+00 1.50000E+00 3.00000E+00
 -1        70 1.00000E+00 1.50000E+00 4.00000E+00
 -1        72 1.00000E+00 1.50000E+00 5.00000E+00
 -1        74 1.00000E+00 1.50000E+00 6.00000E+00
 -1        76 1.00000E+00 1.50000E+00 7.00000E+00
 -1        79 0.00000E+00 1.50000E+00 1.00000E+00
 -1        81 0.00000E+00 1.50000E+00 2.00000E+00
 -1        83 0.00000E+00 1.50000E+00 3.00000E+00
 -1        85 0.00000E+00 1.50000E+00 4.00000E+00
 -1        87 0.00000E+00 1.50000E+00 5.00000E+00
 -1        89 0.00000E+00 1.50000E+00 6.00000E+00
 -1        91 0.00000E+00 1.50000E+00 7.00000E+00
 -1        95 5.00000E-01 7.50000E-01 0.00000E+00
 -1       100 5.00000E-01 7.50000E-01 8.00000E+00
 -1       105 5.00000E-01 0.00000E+00 1.00000E+00
 -1       109 5.00000E-01 0.00000E+00 2.00000E+00
 -1       113 5.00000E-01 0.00000E+00 3.00000E+00
 -1       117 5.00000E-01 0.00000E+00 4.00000E+00
 -1       121 5.00000E-01 0.00000E+00 5.00000E+00
 -1       125 5.00000E-01 0.00000E+00 6.00000E+00
 -1       129 5.00000E-01 0.00000E+00 7.00000E+00
 -1       134 1.00000E+00 7.50000E-01 1.00000E+00
 -1       138 1.00000E+00 7.50000E-01 2.00000E+00
 -1       142 1.00000E+00 7.50000E-01 3.00000E+00
 -1       146 1.00000E+00 7.50000E-01 4.00000E+00
 -1       150 1.00000E+00 7.50000E-01 5.00000E+00
 -1       154 1.00000E+00 7.50000E-01 6.00000E+00
 -1       158 1.00000E+00 7.50000E-01 7.00000E+00
 -1       163 5.00000E-01 1.50000E+00 1.00000E+00
 -1       167 5.00000E-01 1.50000E+00 2.00000E+00
 -1       171 5.00000E-01 1.50000E+00 3.00000E+00
 -1       175 5.00000E-01 1.50000E+00 4.00000E+00
 -1       179 5.00000E-01 1.50000E+00 5.00000E+00
 -1       183 5.00000E-01 1.50000E+00 6.00000E+00
 -1       187 5.00000E-01 1.50000E+00 7.00000E+00
 -1       192 0.00000E+00 7.50000E-01 1.00000E+00
 -1       196 0.00000E+00 7.50000E-01 2.00000E+00
 -1       200 0.00000E+00 7.50000E-01 3.00000E+00
 -1       204 0.00000E+00 7.50000E-01 4.00000E+00
 -1       208 0.00000E+00 7.50000E-01 5.00000E+00
 -1       212 0.00000E+00 7.50000E-01 6.00000E+00
 -1       216 0.00000E+00 7.50000E-01 7.00000E+00
 -1       222 5.00000E-01 7.50000E-01 1.00000E+00
 -1       228 5.00000E-01 7.50000E-01 2.00000E+00
 -1       234 5.00000E-01 7.50000E-01 3.00000E+00
 -1       240 5.00000E-01 7.50000E-01 4.00000E+00
 -1       246 5.00000E-01 7.50000E-01 5.00000E+00
 -1       252 5.00000E-01 7.50000E-01 6.00000E+00
 -1       258 5.00000E-01 7.50000E-01 7.00000E+00
 -3
    3C                            32                                     1
 -1         1    1    0    1
 -2         1        10        95        19        61       105       222       192
 -1         2    1    0    1
 -2        10         2        13        95       105        34       134       222
 -1         3    1    0    1
 -2        19        95        16         4       192       222       163        79
 -1         4    1    0    1
 -2        95        13         3        16       222       134        64       163
 -1         5    1    0    1
 -2        61       105       222       192        59       109       228       196
 -1         6    1    0    1
 -2       105        34       134       222       109        36       138       228
 -1         7    1    0    1
 -2       192       222       163        79       196       228       167        81
 -1         8    1    0    1
 -2       222       134        64       163       228       138        66       167
 -1         9    1    0    1
 -2        59       109       228       196        57       113       234       200
 -1        10    1    0    1
 -2       109        36       138       228       113        38       142       234
 -1        11    1    0    1
 -2       196       228       167        81       200       234       171        83
 -1        12    1    0    1
 -2       228       138        66       167       234       142        68       171
 -1        13    1    0    1
 -2        57       113       234       200        55       117       240       204
 -1        14    1    0    1
 -2       113        38       142       234       117        40       146       240
 -1        15    1    0    1
 -2       200       234       171        83       204       240       175        85
 -1        16    1    0    1
 -2       234       142        68       171       240       146        70       175
 -1        17    1    0    1
 -2        55       117       240       204        53       121       246       208
 -1        18    1    0    1
 -2       117        40       146       240       121        42       150       246
 -1        19    1    0    1
 -2       204       240       175        85       208       246       179        87
 -1        20    1    0    1
 -2       240       146        70       175       246       150        72       179
 -1        21    1    0    1
 -2        53       121       246       208        51       125       252       212
 -1        22    1    0    1
 -2       121        42       150       246       125        44       154       252
 -1        23    1    0    1
 -2       208       246       179        87       212       252       183        89
 -1        24    1    0    1
 -2       246       150        72       179       252       154        74       183
 -1        25    1    0    1
 -2        51       125       252       212        49       129       258       216
 -1        26    1    0    1
 -2       125        44       154       252       129        46       158       258
 -1        27    1    0    1
 -2       212       252       183        89       216       258       187        91
 -1        28    1    0    1
 -2       252       154        74       183       258       158        76       187
 -1        29    1    0    1
 -2        49       129       258       216         5        22       100        31
 -1        30    1    0    1
 -2       129        46       158       258        22         6        25       100
 -1        31    1    0    1
 -2       216       258       187        91        31       100        28         8
 -1        32    1    0    1
 -2       258       158        76       187       100        25         7        28
 -3
    1PSTEP                         1           1           1          
  100CL  101 1.000000000          81                     0    1           1
 -4  DISP        4    1
 -5  D1          1    2    1    0
 -5  D2          1    2    2    0
 -5  D3          1    2    3    0
 -5  ALL         1    2    0    0    1ALL
 -1         1 0.00000E+00 0.00000E+00 0.00000E+00
 -1         2 0.00000E+00 0.00000E+00 0.00000E+00
 -1         3 0.00000E+00 0.00000E+00 0.00000E+00
 -1         4 0.00000E+00 0.00000E+00 0.00000E+00
 -1         5 2.33670E-06 2.39296E-03 3.31623E-04
 -1         6-2.33670E-06 2.39296E-03 3.31623E-04
 -1         7 2.33670E-06 2.39296E-03-3.31623E-04
 -1         8-2.33670E-06 2.39296E-03-3.31623E-04
 -1        10 0.00000E+00 0.00000E+00 0.00000E+00
 -1        13 0.00000E+00 0.00000E+00 0.00000E+00
 -1        16 0.00000E+00 0.00000E+00 0.00000E+00
 -1        19 0.00000E+00 0.00000E+00 0.00000E+00
 -1        22-2.01566E-16 2.39281E-03 3.31130E-04
 -1        25-2.02736E-16 2.39121E-03 2.22320E-17
 -1        28-2.04379E-16 2.39281E-03-3.31130E-04
 -1        31-2.02868E-16 2.39121E-03-1.60258E-17
 -1        34-1.41615E-05 5.88438E-05 7.25896E-05
 -1        36-1.00523E-05 2.08368E-04 1.41292E-04
 -1        38-8.57961E-06 4.44088E-04 1.99383E-04
 -1        40-6.86988E-06 7.49644E-04 2.46812E-04
 -1        42-5.12592E-06 1.11155E-03 2.83706E-04
 -1        44-3.51124E-06 1.51559E-03 3.10110E-04
 -1        46-1.29471E-06 1.94792E-03 3.25781E-04
 -1        49 1.29471E-06 1.94792E-03 3.25781E-04
 -1        51 3.51124E-06 1.51559E-03 3.10110E-04
 -1        53 5.12592E-06 1.11155E-03 2.83706E-04
 -1        55 6.86988E-06 7.49644E-04 2.46812E-04
 -1        57 8.57961E-06 4.44088E-04 1.99383E-04
 -1        59 1.00523E-05 2.08368E-04 1.41292E-04
 -1        61 1.41615E-05 5.88438E-05 7.25896E-05
 -1        64 1.41615E-05 5.88438E-05-7.25896E-05
 -1        66 1.00523E-05 2.08368E-04-1.41292E-04
 -1        68 8.57961E-06 4.44088E-04-1.99383E-04
 -1        70 6.86988E-06 7.49644E-04-2.46812E-04
 -1        72 5.12592E-06 1.11155E-03-2.83706E-04
 -1        74 3.51124E-06 1.51559E-03-3.10110E-04
 -1        76 1.29471E-06 1.94792E-03-3.25781E-04
 -1        79-1.41615E-05 5.88438E-05-7.25896E-05
 -1        81-1.00523E-05 2.08368E-04-1.41292E-04
 -1        83-8.57961E-06 4.44088E-04-1.99383E-04
 -1        85-6.86988E-06 7.49644E-04-2.46812E-04
 -1        87-5.12592E-06 1.11155E-03-2.83706E-04
 -1        89-3.51124E-06 1.51559E-03-3.10110E-04
 -1        91-1.29471E-06 1.94792E-03-3.25781E-04
 -1        95 0.00000E+00 0.00000E+00 0.00000E+00
 -1       100-2.02576E-16 2.39922E-03 3.35586E-18
 -1       105-2.93453E-18 6.33773E-05 7.12189E-05
 -1       109-1.36262E-17 2.11817E-04 1.42147E-04
 -1       113-3.16842E-17 4.46915E-04 1.99632E-04
 -1       117-5.67013E-17 7.51936E-04 2.47160E-04
 -1       121-8.82133E-17 1.11328E-03 2.84071E-04
 -1       125-1.24633E-16 1.51665E-03 3.10376E-04
 -1       129-1.63460E-16 1.94870E-03 3.26370E-04
 -1       134-4.12774E-18 4.90193E-05 3.97154E-18
 -1       138-1.49858E-17 2.01965E-04 8.33127E-18
 -1       142-3.33866E-17 4.38250E-04 1.23857E-17
 -1       146-5.86646E-17 7.45095E-04 1.61351E-17
 -1       150-9.03398E-17 1.10814E-03 1.92168E-17
 -1       154-1.26576E-16 1.51317E-03 2.13553E-17
 -1       158-1.64818E-16 1.94726E-03 2.20717E-17
 -1       163-3.21179E-18 6.33773E-05-7.12189E-05
 -1       167-1.44622E-17 2.11817E-04-1.42147E-04
 -1       171-3.33316E-17 4.46915E-04-1.99632E-04
 -1       175-5.90465E-17 7.51936E-04-2.47160E-04
 -1       179-9.11258E-17 1.11328E-03-2.84071E-04
 -1       183-1.27768E-16 1.51665E-03-3.10376E-04
 -1       187-1.66072E-16 1.94870E-03-3.26370E-04
 -1       192-3.94752E-18 4.90193E-05-3.05589E-18
 -1       196-1.48693E-17 2.01965E-04-6.36796E-18
 -1       200-3.32617E-17 4.38250E-04-9.44547E-18
 -1       204-5.86297E-17 7.45095E-04-1.22601E-17
 -1       208-9.02175E-17 1.10814E-03-1.46352E-17
 -1       212-1.26371E-16 1.51317E-03-1.58960E-17
 -1       216-1.64833E-16 1.94726E-03-1.59311E-17
 -1       222-3.66950E-18 5.35203E-05 4.42076E-19
 -1       228-1.46621E-17 2.05290E-04 9.72374E-19
 -1       234-3.30387E-17 4.41142E-04 1.50835E-18
 -1       240-5.83855E-17 7.47387E-04 1.91991E-18
 -1       246-9.00980E-17 1.10978E-03 2.25005E-18
 -1       252-1.26391E-16 1.51470E-03 2.76562E-18
 -1       258-1.64985E-16 1.94609E-03 3.12056E-18
 -3
    1PSTEP                         2           1           1          
  100CL  101 1.000000000          81                     0    1           1
 -4  STRESS      6    1
 -5  SXX         1    4    1    1
 -5  SYY         1    4    2    2
 -5  SZZ         1    4    3    3
 -5  SXY         1    4    1    2
 -5  SYZ         1    4    2    3
 -5  SZX         1    4    3    1
 -1         1 8.79439E+00 8.79440E+00 2.05201E+01-2.14093E-06 4.75272E+00 1.14380E+00
 -1         2 8.79439E+00 8.79440E+00 2.05201E+01 2.14093E-06 4.75272E+00-1.14380E+00
 -1         3-8.79439E+00-8.79440E+00-2.05201E+01 2.14093E-06 4.75272E+00 1.14380E+00
 -1         4-8.79439E+00-8.79440E+00-2.05201E+01-2.14093E-06 4.75272E+00-1.14380E+00
 -1         5-8.95904E-01-5.17674E-01 8.02643E-01-2.74472E-01 2.31992E-01 4.61575E-03
 -1         6-8.95904E-01-5.17674E-01 8.02643E-01 2.74472E-01 2.31992E-01-4.61575E-03
 -1         7 8.95904E-01 5.17674E-01-8.02643E-01 2.74472E-01 2.31992E-01 4.61575E-03
 -1         8 8.95904E-01 5.17674E-01-8.02643E-01-2.74472E-01 2.31992E-01-4.61575E-03
 -1        10 8.62833E+00 8.62833E+00 2.01326E+01-1.04083E-17 5.11888E+00-2.36814E-13
 -1        13 4.81108E-13 4.81670E-13 1.12432E-12 2.15957E-06 3.95920E+00-3.33233E-13
 -1        16-8.62833E+00-8.62833E+00-2.01326E+01-6.93889E-17 5.11888E+00-2.59626E-13
 -1        19-3.70667E-13-3.70801E-13-8.64836E-13-2.15957E-06 3.95920E+00-3.18938E-13
 -1        22 2.89687E-01 2.42348E+00 1.81346E+00-4.76078E-14 2.10997E-01-4.40412E-14
 -1        25-5.74540E-14 1.01585E-14 2.17326E-14-1.04220E+00 1.43776E-01-1.42985E-14
 -1        28-2.89687E-01-2.42348E+00-1.81346E+00-4.77448E-14 2.10997E-01-5.03486E-14
 -1        31 1.33504E-14-2.65343E-13-9.90596E-14 1.04220E+00 1.43776E-01 5.97124E-14
 -1        34-1.03468E+00 1.42451E+00 1.49523E+01 7.92748E-01 5.97511E-01-1.84534E-01
 -1        36 9.62933E-01 2.83135E+00 1.44513E+01 5.25480E-01 3.41804E-01 8.73798E-02
 -1        38 5.98275E-01 2.11279E+00 1.18926E+01 4.67264E-01 3.87176E-01 8.82465E-02
 -1        40 4.89002E-01 1.72864E+00 9.51898E+00 3.69556E-01 3.75223E-01 8.32372E-02
 -1        42 3.86109E-01 1.30862E+00 7.15453E+00 2.71618E-01 3.79354E-01 7.66668E-02
 -1        44 1.73801E-01 7.88473E-01 4.70649E+00 2.06092E-01 3.80169E-01 1.11775E-01
 -1        46 4.65070E-01 7.41912E-01 2.62086E+00 1.42066E-02 3.48113E-01-4.77939E-02
 -1        49 4.65070E-01 7.41912E-01 2.62086E+00-1.42066E-02 3.48113E-01 4.77939E-02
 -1        51 1.73801E-01 7.88473E-01 4.70649E+00-2.06092E-01 3.80169E-01-1.11775E-01
 -1        53 3.86109E-01 1.30862E+00 7.15453E+00-2.71618E-01 3.79354E-01-7.66668E-02
 -1        55 4.89002E-01 1.72864E+00 9.51898E+00-3.69556E-01 3.75223E-01-8.32372E-02
 -1        57 5.98275E-01 2.11279E+00 1.18926E+01-4.67264E-01 3.87176E-01-8.82465E-02
 -1        59 9.62933E-01 2.83135E+00 1.44513E+01-5.25480E-01 3.41804E-01-8.73798E-02
 -1        61-1.03468E+00 1.42451E+00 1.49523E+01-7.92748E-01 5.97511E-01 1.84534E-01
 -1        64 1.03468E+00-1.42451E+00-1.49523E+01 7.92748E-01 5.97511E-01 1.84534E-01
 -1        66-9.62933E-01-2.83135E+00-1.44513E+01 5.25480E-01 3.41804E-01-8.73798E-02
 -1        68-5.98275E-01-2.11279E+00-1.18926E+01 4.67264E-01 3.87176E-01-8.82465E-02
 -1        70-4.89002E-01-1.72864E+00-9.51898E+00 3.69556E-01 3.75223E-01-8.32372E-02
 -1        72-3.86109E-01-1.30862E+00-7.15453E+00 2.71618E-01 3.79354E-01-7.66668E-02
 -1        74-1.73801E-01-7.88473E-01-4.70649E+00 2.06092E-01 3.80169E-01-1.11775E-01
 -1        76-4.65070E-01-7.41912E-01-2.62086E+00 1.42066E-02 3.48113E-01 4.77939E-02
 -1        79 1.03468E+00-1.42451E+00-1.49523E+01-7.92748E-01 5.97511E-01-1.84534E-01
 -1        81-9.62933E-01-2.83135E+00-1.44513E+01-5.25480E-01 3.41804E-01 8.73798E-02
 -1        83-5.98275E-01-2.11279E+00-1.18926E+01-4.67264E-01 3.87176E-01 8.82465E-02
 -1        85-4.89002E-01-1.72864E+00-9.51898E+00-3.69556E-01 3.75223E-01 8.32372E-02
 -1        87-3.86109E-01-1.30862E+00-7.15453E+00-2.71618E-01 3.79354E-01 7.66668E-02
 -1        89-1.73801E-01-7.88473E-01-4.70649E+00-2.06092E-01 3.80169E-01 1.11775E-01
 -1        91-4.65070E-01-7.41912E-01-2.62086E+00-1.42066E-02 3.48113E-01-4.77939E-02
 -1        95 5.39256E-14 5.38632E-14 1.26246E-13 1.20563E-16 4.32274E+00-2.96386E-13
 -1       100 1.18516E-13 1.62426E-13 1.40221E-13-2.68119E-14 9.38117E-01 5.38409E-14
 -1       105-9.88170E-01 1.46401E+00 1.50678E+01 7.47458E-14 8.84388E-01 1.97203E-14
 -1       109 1.04111E+00 2.88292E+00 1.46603E+01 6.70020E-14 1.80869E-01 1.36627E-14
 -1       113 5.78091E-01 2.10659E+00 1.18316E+01 6.28109E-14 3.13630E-01 1.11404E-14
 -1       117 4.96007E-01 1.73563E+00 9.53533E+00 6.54338E-14 2.93660E-01 7.28410E-15
 -1       121 3.64891E-01 1.26576E+00 7.12667E+00 3.53606E-14 2.90483E-01-4.36456E-15
 -1       125 2.61448E-01 9.74853E-01 4.81227E+00 5.09801E-14 3.12745E-01-3.15997E-14
 -1       129 1.05131E-01-3.67003E-02 2.19968E+00 5.31519E-15 2.35913E-01-3.16691E-14
 -1       134 8.77076E-14 2.45359E-14 9.10660E-13 7.98002E-01 3.38908E-01-3.53589E-14
 -1       138 1.85352E-13 9.79217E-14 9.73333E-13 5.45437E-01 5.02809E-01 7.18761E-15
 -1       142 1.29896E-13 4.25215E-14 8.77187E-13 4.56772E-01 4.62058E-01-7.62931E-15
 -1       146 1.43191E-13 7.63278E-14 7.90756E-13 3.69563E-01 4.73436E-01-4.74924E-15
 -1       150 7.33857E-14 5.38458E-15 5.77871E-13 2.87851E-01 4.65627E-01-1.51094E-15
 -1       154 3.30846E-14 3.64431E-14 3.32956E-13 1.32042E-01 4.91187E-01-5.32560E-15
 -1       158 2.50806E-14-2.02657E-13 5.22499E-14 3.28212E-01 3.74932E-01-1.34912E-14
 -1       163 9.88170E-01-1.46401E+00-1.50678E+01-7.66887E-14 8.84388E-01-1.69309E-15
 -1       167-1.04111E+00-2.88292E+00-1.46603E+01-6.25056E-14 1.80869E-01-1.95607E-14
 -1       171-5.78091E-01-2.10659E+00-1.18316E+01-4.80865E-14 3.13630E-01-2.04853E-14
 -1       175-4.96007E-01-1.73563E+00-9.53533E+00-3.68733E-14 2.93660E-01-2.30545E-14
 -1       179-3.64891E-01-1.26576E+00-7.12667E+00-3.34593E-14 2.90483E-01-4.41470E-14
 -1       183-2.61448E-01-9.74853E-01-4.81227E+00-4.59494E-14 3.12745E-01-2.89248E-14
 -1       187-1.05131E-01 3.67003E-02-2.19968E+00 1.87073E-14 2.35913E-01-1.60254E-14
 -1       192-1.06748E-13-3.59712E-14-7.10210E-13-7.98002E-01 3.38908E-01-3.51994E-14
 -1       196-1.66533E-13-9.34808E-14-7.49845E-13-5.45437E-01 5.02809E-01 1.18059E-15
 -1       200-1.31006E-13-6.78346E-14-6.80900E-13-4.56772E-01 4.62058E-01 2.71080E-15
 -1       204-8.89844E-14-4.71290E-14-5.90833E-13-3.69563E-01 4.73436E-01-9.10789E-15
 -1       208-4.65461E-14 6.17284E-14-3.84776E-13-2.87851E-01 4.65627E-01-7.27641E-15
 -1       212-8.88317E-14-7.77711E-14-1.91569E-13-1.32042E-01 4.91187E-01 1.00262E-15
 -1       216-9.30263E-14-3.75810E-14-6.04378E-14-3.28212E-01 3.74932E-01-1.29346E-14
 -1       222-1.14353E-14-8.60423E-15 9.53682E-14 8.74301E-16 6.20796E-01-2.44763E-14
 -1       228 4.16334E-15-1.41553E-14 1.09773E-13 2.81719E-15 3.45810E-01 8.98641E-16
 -1       234 1.25455E-14 1.83742E-14 1.10412E-13-4.12170E-15 3.93499E-01-2.58246E-15
 -1       240 1.32949E-14-1.02973E-14 7.95058E-14 2.63678E-15 3.85191E-01-1.11479E-14
 -1       246-2.24820E-15-1.09079E-14 8.89427E-14-4.46865E-15 3.95270E-01-1.15694E-14
 -1       252 1.30659E-14 7.03049E-14 1.16483E-13 4.44506E-14 3.49320E-01-1.58661E-14
 -1       258 4.26811E-14 4.06203E-14 9.06150E-14 1.71391E-14 5.73386E-01-7.42624E-15
 -3
    1PSTEP                         3           1           1          
  100CL  101 1.000000000          81                     0    1           1
 -4  ERROR       1    1
 -5  STR(%)      1    1    0    0
 -1         1 6.08651E+01
 -1         2 6.08651E+01
 -1         3 6.08651E+01
 -1         4 6.08651E+01
 -1         5 4.70004E+01
 -1         6 4.70004E+01
 -1         7 4.70004E+01
 -1         8 4.70004E+01
 -1        10 6.08651E+01
 -1        13 6.08651E+01
 -1        16 6.08651E+01
 -1        19 6.08651E+01
 -1        22 4.70004E+01
 -1        25 4.70004E+01
 -1        28 4.70004E+01
 -1        31 4.70004E+01
 -1        34 6.08651E+01
 -1        36 5.79534E+01
 -1        38 5.84113E+01
 -1        40 5.91987E+01
 -1        42 6.00778E+01
 -1        44 6.23107E+01
 -1        46 6.23107E+01
 -1        49 6.23107E+01
 -1        51 6.23107E+01
 -1        53 6.00778E+01
 -1        55 5.91987E+01
 -1        57 5.84113E+01
 -1        59 5.79534E+01
 -1        61 6.08651E+01
 -1        64 6.08651E+01
 -1        66 5.79534E+01
 -1        68 5.84113E+01
 -1        70 5.91987E+01
 -1        72 6.00778E+01
 -1        74 6.23107E+01
 -1        76 6.23107E+01
 -1        79 6.08651E+01
 -1        81 5.79534E+01
 -1        83 5.84113E+01
 -1        85 5.91987E+01
 -1        87 6.00778E+01
 -1        89 6.23107E+01
 -1        91 6.23107E+01
 -1        95 6.08651E+01
 -1       100 4.70004E+01
 -1       105 6.08651E+01
 -1       109 5.79534E+01
 -1       113 5.84113E+01
 -1       117 5.91987E+01
 -1       121 6.00778E+01
 -1       125 6.23107E+01
 -1       129 6.23107E+01
 -1       134 6.08651E+01
 -1       138 5.79534E+01
 -1       142 5.84113E+01
 -1       146 5.91987E+01
 -1       150 6.00778E+01
 -1       154 6.23107E+01
 -1       158 6.23107E+01
 -1       163 6.08651E+01
 -1       167 5.79534E+01
 -1       171 5.84113E+01
 -1       175 5.91987E+01
 -1       179 6.00778E+01
 -1       183 6.23107E+01
 -1       187 6.23107E+01
 -1       192 6.08651E+01
 -1       196 5.79534E+01
 -1       200 5.84113E+01
 -1       204 5.91987E+01
 -1       208 6.00778E+01
 -1       212 6.23107E+01
 -1       216 6.23107E+01
 -1       222 6.08651E+01
 -1       228 5.79534E+01
 -1       234 5.84113E+01
 -1       240 5.91987E+01
 -1       246 6.00778E+01
 -1       252 6.23107E+01
 -1       258 6.23107E+01
 -3
    1PSTEP                         1           1           2          
  100CL  102 0.00000E+00          81                     3    2           1
 -4  NORM        4    1
 -5  NORMX       1    2    1    0
 -5  NORMY       1    2    2    0
 -5  NORMZ       1    2    3    0
 -5  ALL         1    2    0    0    1ALL
 -1         1 0.00000E+00 0.00000E+00 0.00000E+00
 -1         2 0.00000E+00 0.00000E+00 0.00000E+00
 -1         3 0.00000E+00 0.00000E+00 0.00000E+00
 -1         4 0.00000E+00 0.00000E+00 0.00000E+00
 -1         5-5.77350E-01-5.77350E-01 5.77350E-01
 -1         6 5.77350E-01-5.77350E-01 5.77350E-01
 -1         7 5.77350E-01 5.77350E-01 5.77350E-01
 -1         8-5.77350E-01 5.77350E-01 5.77350E-01
 -1        10 0.00000E+00 0.00000E+00 0.00000E+00
 -1        13 0.00000E+00 0.00000E+00 0.00000E+00
 -1        16 0.00000E+00 0.00000E+00 0.00000E+00
 -1        19 0.00000E+00 0.00000E+00 0.00000E+00
 -1        22 0.00000E+00-7.07107E-01 7.07107E-01
 -1        25 7.07107E-01 0.00000E+00 7.07107E-01
 -1        28 0.00000E+00 7.07107E-01 7.07107E-01
 -1        31-7.07107E-01 0.00000E+00 7.07107E-01
 -1        34 7.07107E-01-7.07107E-01 0.00000E+00
 -1        36 7.07107E-01-7.07107E-01 0.00000E+00
 -1        38 7.07107E-01-7.07107E-01 0.00000E+00
 -1        40 7.07107E-01-7.07107E-01 0.00000E+00
 -1        42 7.07107E-01-7.07107E-01 0.00000E+00
 -1        44 7.07107E-01-7.07107E-01 0.00000E+00
 -1        46 7.07107E-01-7.07107E-01 0.00000E+00
 -1        49-7.07107E-01-7.07107E-01 0.00000E+00
 -1        51-7.07107E-01-7.07107E-01 0.00000E+00
 -1        53-7.07107E-01-7.07107E-01 0.00000E+00
 -1        55-7.07107E-01-7.07107E-01 0.00000E+00
 -1        57-7.07107E-01-7.07107E-01 0.00000E+00
 -1        59-7.07107E-01-7.07107E-01 0.00000E+00
 -1        61-7.07107E-01-7.07107E-01 0.00000E+00
 -1        64 7.07107E-01 7.07107E-01 0.00000E+00
 -1        66 7.07107E-01 7.07107E-01 0.00000E+00
 -1        68 7.07107E-01 7.07107E-01 0.00000E+00
 -1        70 7.07107E-01 7.07107E-01 0.00000E+00
 -1        72 7.07107E-01 7.07107E-01 0.00000E+00
 -1        74 7.07107E-01 7.07107E-01 0.00000E+00
 -1        76 7.07107E-01 7.07107E-01 0.00000E+00
 -1        79-7.07107E-01 7.07107E-01 0.00000E+00
 -1        81-7.07107E-01 7.07107E-01 0.00000E+00
 -1        83-7.07107E-01 7.07107E-01 0.00000E+00
 -1        85-7.07107E-01 7.07107E-01 0.00000E+00
 -1        87-7.07107E-01 7.07107E-01 0.00000E+00
 -1        89-7.07107E-01 7.07107E-01 0.00000E+00
 -1        91-7.07107E-01 7.07107E-01 0.00000E+00
 -1        95 0.00000E+00 0.00000E+00 0.00000E+00
 -1       100 0.00000E+00 0.00000E+00 1.00000E+00
 -1       105 0.00000E+00-1.00000E+00 0.00000E+00
 -1       109 0.00000E+00-1.00000E+00 0.00000E+00
 -1       113 0.00000E+00-1.00000E+00 0.00000E+00
 -1       117 0.00000E+00-1.00000E+00 0.00000E+00
 -1       121 0.00000E+00-1.00000E+00 0.00000E+00
 -1       125 0.00000E+00-1.00000E+00 0.00000E+00
 -1       129 0.00000E+00-1.00000E+00 0.00000E+00
 -1       134 1.00000E+00 0.00000E+00 0.00000E+00
 -1       138 1.00000E+00 0.00000E+00 0.00000E+00
 -1       142 1.00000E+00 0.00000E+00 0.00000E+00
 -1       146 1.00000E+00 0.00000E+00 0.00000E+00
 -1       150 1.00000E+00 0.00000E+00 0.00000E+00
 -1       154 1.00000E+00 0.00000E+00 0.00000E+00
 -1       158 1.00000E+00 0.00000E+00 0.00000E+00
 -1       163 0.00000E+00 1.00000E+00 0.00000E+00
 -1       167 0.00000E+00 1.00000E+00 0.00000E+00
 -1       171 0.00000E+00 1.00000E+00 0.00000E+00
 -1       175 0.00000E+00 1.00000E+00 0.00000E+00
 -1       179 0.00000E+00 1.00000E+00 0.00000E+00
 -1       183 0.00000E+00 1.00000E+00 0.00000E+00
 -1       187 0.00000E+00 1.00000E+00 0.00000E+00
 -1       192-1.00000E+00 0.00000E+00 0.00000E+00
 -1       196-1.00000E+00 0.00000E+00 0.00000E+00
 -1       200-1.00000E+00 0.00000E+00 0.00000E+00
 -1       204-1.00000E+00 0.00000E+00 0.00000E+00
 -1       208-1.00000E+00 0.00000E+00 0.00000E+00
 -1       212-1.00000E+00 0.00000E+00 0.00000E+00
 -1       216-1.00000E+00 0.00000E+00 0.00000E+00
 -1       222 0.00000E+00 0.00000E+00 0.00000E+00
 -1       228 0.00000E+00 0.00000E+00 0.00000E+00
 -1       234 0.00000E+00 0.00000E+00 0.00000E+00
 -1       240 0.00000E+00 0.00000E+00 0.00000E+00
 -1       246 0.00000E+00 0.00000E+00 0.00000E+00
 -1       252 0.00000E+00 0.00000E+00 0.00000E+00
 -1       258 0.00000E+00 0.00000E+00 0.00000E+00
 -3
    1PSTEP                         2           1           2          
  100CL  103 0.00000E+00          81                     3    3           1
 -4  SENMISE     2    1
 -5  DFDN        1    1    1    0
 -5  DFDNFIL     1    1    2    0
 -1         1 0.00000E+00 0.00000E+00
 -1         2 0.00000E+00 0.00000E+00
 -1         3 0.00000E+00 0.00000E+00
 -1         4 0.00000E+00 0.00000E+00
 -1         5-8.29443E-07 1.27793E-02
 -1         6-9.70298E-07 1.27793E-02
 -1         7-8.38405E-07 1.27793E-02
 -1         8-7.75136E-07 1.27794E-02
 -1        10 0.00000E+00 0.00000E+00
 -1        13 0.00000E+00 0.00000E+00
 -1        16 0.00000E+00 0.00000E+00
 -1        19 0.00000E+00 0.00000E+00
 -1        22-2.70305E-06 1.45403E-02
 -1        25-1.86362E-06 1.74485E-02
 -1        28-2.49489E-06 1.45403E-02
 -1        31-1.77189E-06 1.74485E-02
 -1        34-3.26832E-01-2.74305E-01
 -1        36-9.31372E-02-1.70942E-01
 -1        38-6.88084E-03-2.34555E-02
 -1        40-6.48011E-04-1.63256E-03
 -1        42-8.27156E-05-1.74600E-04
 -1        44-3.46488E-06-1.67635E-05
 -1        46-2.75542E-06 7.60197E-03
 -1        49-2.39247E-06 7.60202E-03
 -1        51-3.17305E-06-1.67226E-05
 -1        53-8.30416E-05-1.74599E-04
 -1        55-6.48622E-04-1.63284E-03
 -1        57-6.90353E-03-2.34585E-02
 -1        59-9.32997E-02-1.70982E-01
 -1        61-3.28258E-01-2.74412E-01
 -1        64-3.28145E-01-2.74388E-01
 -1        66-9.34312E-02-1.70988E-01
 -1        68-6.93449E-03-2.34847E-02
 -1        70-6.52245E-04-1.63760E-03
 -1        72-8.35320E-05-1.75171E-04
 -1        74-3.53045E-06-1.68573E-05
 -1        76-2.43311E-06 7.60198E-03
 -1        79-3.26720E-01-2.74280E-01
 -1        81-9.32687E-02-1.70948E-01
 -1        83-6.91174E-03-2.34817E-02
 -1        85-6.51640E-04-1.63731E-03
 -1        87-8.31555E-05-1.75131E-04
 -1        89-3.26828E-06-1.68141E-05
 -1        91-2.45743E-06 7.60201E-03
 -1        95 0.00000E+00 0.00000E+00
 -1       100 2.04149E-01 2.32651E-02
 -1       105-5.48264E-01-3.14845E-01
 -1       109-1.15786E-01-1.96306E-01
 -1       113-8.74249E-03-2.69237E-02
 -1       117-1.19853E-03-1.87790E-03
 -1       121-6.01021E-05-2.00202E-04
 -1       125-1.86365E-05-1.93638E-05
 -1       129-4.99307E-06 8.72173E-03
 -1       134-1.64105E-01-3.19121E-01
 -1       138-7.91209E-02-2.17582E-01
 -1       142-5.68836E-03-3.03832E-02
 -1       146-6.03949E-04-2.10296E-03
 -1       150-5.93785E-05-2.25191E-04
 -1       154-5.01410E-06-2.16433E-05
 -1       158-6.92746E-07 1.02567E-02
 -1       163-5.48099E-01-3.14817E-01
 -1       167-1.15995E-01-1.96314E-01
 -1       171-8.79173E-03-2.69522E-02
 -1       175-1.20343E-03-1.88304E-03
 -1       179-6.09300E-05-2.00801E-04
 -1       183-1.88880E-05-1.94658E-05
 -1       187-5.44460E-06 8.72172E-03
 -1       192-1.64105E-01-3.19121E-01
 -1       196-7.91210E-02-2.17582E-01
 -1       200-5.68831E-03-3.03832E-02
 -1       204-6.03934E-04-2.10295E-03