    1C
    1UUSER                                                              
    1UDATE              13.january.2022                                 
    1UTIME              11:55:06                                        
    1UHOST                                                              
    1UPGM               CalculiX                                        
    1UVERSION           Version DEVELOPMENT                             
    1UCOMPILETIME       Fri Dec 17 13:12:10 CET 2021                    
    1UDIR                                                               
    1UDBN                                                               
    1UMAT    1EL                                                        
    2C                            90                                     1
 -1        10 1.00000E+00 0.00000E+00 8.00000E+00
 -1        11 1.00000E+00 1.00000E+00 8.00000E+00
 -1        12 0.00000E+00 0.00000E+00 8.00000E+00
 -1        13 1.00000E+00 5.00000E-01 8.00000E+00
 -1        14 5.00000E-01 5.00000E-01 8.00000E+00
 -1        15 5.00000E-01 0.00000E+00 8.00000E+00
 -1        16 0.00000E+00 1.00000E+00 8.00000E+00
 -1        17 5.00000E-01 1.00000E+00 8.00000E+00
 -1        18 0.00000E+00 5.00000E-01 8.00000E+00
 -1        31 1.00000E+00 0.00000E+00 6.00000E+00
 -1        34 0.00000E+00 0.00000E+00 6.00000E+00
 -1        35 5.00000E-01 0.00000E+00 6.00000E+00
 -1        37 1.00000E+00 0.00000E+00 7.00000E+00
 -1        38 5.00000E-01 0.00000E+00 7.00000E+00
 -1        39 0.00000E+00 0.00000E+00 7.00000E+00
 -1        48 0.00000E+00 1.00000E+00 6.00000E+00
 -1        51 0.00000E+00 5.00000E-01 6.00000E+00
 -1        52 0.00000E+00 5.00000E-01 7.00000E+00
 -1        53 0.00000E+00 1.00000E+00 7.00000E+00
 -1        62 1.00000E+00 1.00000E+00 6.00000E+00
 -1        65 5.00000E-01 1.00000E+00 6.00000E+00
 -1        66 5.00000E-01 1.00000E+00 7.00000E+00
 -1        67 1.00000E+00 1.00000E+00 7.00000E+00
 -1        73 1.00000E+00 5.00000E-01 6.00000E+00
 -1        74 1.00000E+00 5.00000E-01 7.00000E+00
 -1       160 5.00000E-01 5.00000E-01 7.00000E+00
 -1       161 5.00000E-01 5.00000E-01 6.00000E+00
 -1       165 1.00000E+00 0.00000E+00 9.94635E-01
 -1       166 1.00000E+00 5.00000E-01 8.90320E-01
 -1       167 1.00000E+00 5.00000E-01 0.00000E+00
 -1       168 5.00000E-01 0.00000E+00 0.00000E+00
 -1       169 0.00000E+00 5.00000E-01 0.00000E+00
 -1       170 5.00000E-01 5.00000E-01 8.90320E-01
 -1       171 5.00000E-01 5.00000E-01 0.00000E+00
 -1       172 0.00000E+00 5.00000E-01 9.94714E-01
 -1       173 5.00000E-01 0.00000E+00 9.94635E-01
 -1       174 0.00000E+00 0.00000E+00 1.07536E+00
 -1       175 5.00000E-01 1.00000E+00 0.00000E+00
 -1       176 1.00000E+00 1.00000E+00 8.90320E-01
 -1       177 5.00000E-01 1.00000E+00 8.90320E-01
 -1       178 0.00000E+00 1.00000E+00 9.94714E-01
 -1       179 1.00000E+00 0.00000E+00 3.00924E+00
 -1       180 1.00000E+00 5.00000E-01 2.89463E+00
 -1       181 7.49936E-01 2.49935E-01 2.99457E+00
 -1       182 1.00000E+00 5.00000E-01 1.88496E+00
 -1       183 5.00000E-01 5.00000E-01 1.98935E+00
 -1       184 5.00000E-01 0.00000E+00 2.07000E+00
 -1       185 5.00000E-01 0.00000E+00 3.08996E+00
 -1       186 2.49935E-01 2.49935E-01 3.07530E+00
 -1       187 0.00000E+00 0.00000E+00 3.12558E+00
 -1       188 0.00000E+00 5.00000E-01 3.09003E+00
 -1       189 0.00000E+00 5.00000E-01 2.07008E+00
 -1       190 1.00000E+00 5.00000E-01 5.01460E+00
 -1       191 1.00000E+00 5.00000E-01 3.91460E+00
 -1       192 1.00000E+00 0.00000E+00 5.01460E+00
 -1       193 7.49936E-01 2.49935E-01 4.01454E+00
 -1       194 5.00000E-01 0.00000E+00 4.06482E+00
 -1       195 5.00000E-01 0.00000E+00 5.05022E+00
 -1       196 0.00000E+00 5.00000E-01 5.05022E+00
 -1       197 0.00000E+00 0.00000E+00 5.05022E+00
 -1       198 2.49935E-01 2.49935E-01 4.05016E+00
 -1       199 0.00000E+00 5.00000E-01 4.06489E+00
 -1       200 7.49936E-01 2.49935E-01 4.99994E+00
 -1       201 2.49935E-01 2.49935E-01 4.99994E+00
 -1       202 5.00000E-01 1.00000E+00 2.89471E+00
 -1       203 2.49935E-01 7.49936E-01 2.99465E+00
 -1       204 0.00000E+00 1.00000E+00 3.00938E+00
 -1       205 5.00000E-01 1.00000E+00 1.88503E+00
 -1       206 5.00000E-01 1.00000E+00 5.01467E+00
 -1       207 0.00000E+00 1.00000E+00 5.01467E+00
 -1       208 5.00000E-01 1.00000E+00 3.91467E+00
 -1       209 2.49935E-01 7.49936E-01 4.01460E+00
 -1       210 2.49935E-01 7.49936E-01 4.99994E+00
 -1       211 1.00000E+00 1.00000E+00 2.79032E+00
 -1       212 1.00000E+00 1.00000E+00 4.90000E+00
 -1       213 7.49936E-01 7.49936E-01 3.89994E+00
 -1       214 7.49936E-01 7.49936E-01 4.99994E+00
 -1       215 0.00000E+00 0.00000E+00 0.00000E+00
 -1       216 0.00000E+00 0.00000E+00 2.15072E+00
 -1       217 1.00000E+00 0.00000E+00 1.98927E+00
 -1       218 0.00000E+00 1.00000E+00 1.98943E+00
 -1       219 1.00000E+00 1.00000E+00 0.00000E+00
 -1       220 1.00000E+00 1.00000E+00 1.78064E+00
 -1       221 1.00000E+00 0.00000E+00 0.00000E+00
 -1       222 0.00000E+00 1.00000E+00 4.02933E+00
 -1       223 0.00000E+00 0.00000E+00 4.10044E+00
 -1       224 4.99871E-01 4.99871E-01 3.99987E+00
 -1       225 0.00000E+00 1.00000E+00 0.00000E+00
 -1       226 1.00000E+00 1.00000E+00 3.80000E+00
 -1       227 1.00000E+00 0.00000E+00 4.02920E+00
 -3
    3C                            31                                     1
 -1         1    6    0    1
 -2       215       216       217       218       174       184       173       172       189       183
 -1         2    6    0    1
 -2       215       219       220       221       171       176       170       168       167       166
 -1         3    6    0    1
 -2       216       222       223       224       188       199       187       186       209       198
 -1         4    6    0    1
 -2       223        34       224        48       197       201       198       196        51       210
 -1         5    6    0    1
 -2       218       225       220       215       178       177       205       172       169       170
 -1         6    6    0    1
 -2       220       215       217       218       170       173       182       205       172       183
 -1         7    6    0    1
 -2       218       222       224       226       204       209       203       202       208       213
 -1         8    6    0    1
 -2       222        48       224        62       207       210       209       206        65       214
 -1         9    6    0    1
 -2       216       217       218       224       184       183       189       186       181       203
 -1        10    6    0    1
 -2       225       219       220       215       175       176       177       169       171       170
 -1        11    6    0    1
 -2       216       223       227       224       187       194       185       186       198       193
 -1        12    6    0    1
 -2       221       215       217       220       168       173       165       166       170       182
 -1        13    6    0    1
 -2       226       217       218       220       180       183       202       211       182       205
 -1        14    6    0    1
 -2       223       227       224        31       194       193       198       195       192       200
 -1        15    6    0    1
 -2       224        48        34        62       210        51       201       214        65       161
 -1        16    6    0    1
 -2       226       227        62       224       191       190       212       213       193       214
 -1        17    6    0    1
 -2       217       227       226       224       179       191       180       181       193       213
 -1        18    6    0    1
 -2       216       217       224       227       184       181       186       185       179       193
 -1        19    6    0    1
 -2       227        62       224        31       190       214       193       192        73       200
 -1        20    6    0    1
 -2       223        48       224       222       196       210       198       199       207       209
 -1        21    6    0    1
 -2       223        34        31       224       197        35       195       198       201       200
 -1        22    6    0    1
 -2        34        62        31       224       161        73        35       201       214       200
 -1        23    6    0    1
 -2       216       224       218       222       186       203       189       188       209       204
 -1        24    6    0    1
 -2       222        62       224       226       206       214       209       208       212       213
 -1        25    6    0    1
 -2       224       226       217       218       213       180       181       203       202       183
 -1        45    6    0    1
 -2        34        16        11        48        52        17       160        51        53        66
 -1        46    6    0    1
 -2        11        62        31        34        67        73        74       160       161        35
 -1        47    6    0    1
 -2        12        11        34        16        14       160        39        18        17        52
 -1        54    6    0    1
 -2        62        48        34        11        65        51       161        67        66       160
 -1        56    6    0    1
 -2        34        11        10        31       160        13        38        35        74        37
 -1        57    6    0    1
 -2        10        11        34        12        13       160        38        15        14        39
 -3
    1PSTEP                         4           1           1          
  100CL  101 1.000000000          90                     0    1           1
 -4  DISP        4    1
 -5  D1          1    2    1    0
 -5  D2          1    2    2    0
 -5  D3          1    2    3    0
 -5  ALL         1    2    0    0    1ALL
 -1        10-4.20996E-16-1.89852E-15 3.80952E-03
 -1        11-4.29398E-16-1.42857E-04 3.80952E-03
 -1        12 1.42857E-04-1.90478E-15 3.80952E-03
 -1        13-4.25120E-16-7.14286E-05 3.80952E-03
 -1        14 7.14286E-05-7.14286E-05 3.80952E-03
 -1        15 7.14286E-05-1.90120E-15 3.80952E-03
 -1        16 1.42857E-04-1.42857E-04 3.80952E-03
 -1        17 7.14286E-05-1.42857E-04 3.80952E-03
 -1        18 1.42857E-04-7.14286E-05 3.80952E-03
 -1        31-3.11413E-16-1.21198E-15 2.85714E-03
 -1        34 1.42857E-04-1.20918E-15 2.85714E-03
 -1        35 7.14286E-05-1.21162E-15 2.85714E-03
 -1        37-3.67409E-16-1.55134E-15 3.33333E-03
 -1        38 7.14286E-05-1.55303E-15 3.33333E-03
 -1        39 1.42857E-04-1.55442E-15 3.33333E-03
 -1        48 1.42857E-04-1.42857E-04 2.85714E-03
 -1        51 1.42857E-04-7.14286E-05 2.85714E-03
 -1        52 1.42857E-04-7.14286E-05 3.33333E-03
 -1        53 1.42857E-04-1.42857E-04 3.33333E-03
 -1        62-3.12989E-16-1.42857E-04 2.85714E-03
 -1        65 7.14286E-05-1.42857E-04 2.85714E-03
 -1        66 7.14286E-05-1.42857E-04 3.33333E-03
 -1        67-3.72098E-16-1.42857E-04 3.33333E-03
 -1        73-3.11754E-16-7.14286E-05 2.85714E-03
 -1        74-3.69811E-16-7.14286E-05 3.33333E-03
 -1       160 7.14286E-05-7.14286E-05 3.33333E-03
 -1       161 7.14286E-05-7.14286E-05 2.85714E-03
 -1       165-2.13932E-17-4.47515E-17 4.73636E-04
 -1       166-2.01043E-17-7.14286E-05 4.23962E-04
 -1       167-4.39248E-18-7.14286E-05-0.00000E+00
 -1       168 7.14286E-05-3.28649E-18-0.00000E+00
 -1       169 1.42857E-04-7.14286E-05-0.00000E+00
 -1       170 7.14286E-05-7.14286E-05 4.23962E-04
 -1       171 7.14286E-05-7.14286E-05-0.00000E+00
 -1       172 1.42857E-04-7.14286E-05 4.73674E-04
 -1       173 7.14286E-05-4.46759E-17 4.73636E-04
 -1       174 1.42857E-04-4.45285E-17 5.12077E-04
 -1       175 7.14286E-05-1.42857E-04-0.00000E+00
 -1       176-1.81875E-17-1.42857E-04 4.23962E-04
 -1       177 7.14286E-05-1.42857E-04 4.23962E-04
 -1       178 1.42857E-04-1.42857E-04 4.73674E-04
 -1       179-1.29661E-16-3.58708E-16 1.43297E-03
 -1       180-1.20549E-16-7.14286E-05 1.37840E-03
 -1       181 3.57235E-05-3.57051E-05 1.42599E-03
 -1       182-6.30328E-17-7.14286E-05 8.97598E-04
 -1       183 7.14286E-05-7.14286E-05 9.47309E-04
 -1       184 7.14286E-05-1.75187E-16 9.85713E-04
 -1       185 7.14286E-05-3.72759E-16 1.47141E-03
 -1       186 1.07152E-04-3.57051E-05 1.46443E-03
 -1       187 1.42857E-04-3.73360E-16 1.48837E-03
 -1       188 1.42857E-04-7.14286E-05 1.47144E-03
 -1       189 1.42857E-04-7.14286E-05 9.85750E-04
 -1       190-2.52646E-16-7.14286E-05 2.38791E-03
 -1       191-1.84694E-16-7.14286E-05 1.86410E-03
 -1       192-2.54288E-16-8.96750E-16 2.38791E-03
 -1       193 3.57235E-05-3.57051E-05 1.91168E-03
 -1       194 7.14286E-05-6.17108E-16 1.93563E-03
 -1       195 7.14286E-05-9.05133E-16 2.40487E-03
 -1       196 1.42857E-04-7.14286E-05 2.40487E-03
 -1       197 1.42857E-04-9.00123E-16 2.40487E-03
 -1       198 1.07152E-04-3.57051E-05 1.92865E-03
 -1       199 1.42857E-04-7.14286E-05 1.93566E-03
 -1       200 3.57235E-05-3.57051E-05 2.38092E-03
 -1       201 1.07152E-04-3.57051E-05 2.38092E-03
 -1       202 7.14286E-05-1.42857E-04 1.37844E-03
 -1       203 1.07152E-04-1.07134E-04 1.42602E-03
 -1       204 1.42857E-04-1.42857E-04 1.43304E-03
 -1       205 7.14286E-05-1.42857E-04 8.97636E-04
 -1       206 7.14286E-05-1.42857E-04 2.38794E-03
 -1       207 1.42857E-04-1.42857E-04 2.38794E-03
 -1       208 7.14286E-05-1.42857E-04 1.86413E-03
 -1       209 1.07152E-04-1.07134E-04 1.91171E-03
 -1       210 1.07152E-04-1.07134E-04 2.38092E-03
 -1       211-1.12144E-16-1.42857E-04 1.32872E-03
 -1       212-2.45513E-16-1.42857E-04 2.33333E-03
 -1       213 3.57235E-05-1.07134E-04 1.85711E-03
 -1       214 3.57235E-05-1.07134E-04 2.38092E-03
 -1       215 1.42857E-04 8.13152E-19-0.00000E+00
 -1       216 1.42857E-04-1.80538E-16 1.02415E-03
 -1       217-6.88468E-17-1.65312E-16 9.47271E-04
 -1       218 1.42857E-04-1.42857E-04 9.47347E-04
 -1       219-0.00000E+00-1.42857E-04-0.00000E+00
 -1       220-5.63137E-17-1.42857E-04 8.47924E-04
 -1       221-0.00000E+00-0.00000E+00-0.00000E+00
 -1       222 1.42857E-04-1.42857E-04 1.91873E-03
 -1       223 1.42857E-04-6.19371E-16 1.95259E-03
 -1       224 7.14470E-05-7.14101E-05 1.90470E-03
 -1       225 1.42857E-04-1.42857E-04-0.00000E+00
 -1       226-1.75614E-16-1.42857E-04 1.80952E-03
 -1       227-1.94709E-16-6.11748E-16 1.91867E-03
 -3
    1PSTEP                         5           1           1          
  100CL  101 1.000000000          90                     0    1           1
 -4  STRESS      6    1
 -5  SXX         1    4    1    1
 -5  SYY         1    4    2    2
 -5  SZZ         1    4    3    3
 -5  SXY         1    4    1    2
 -5  SYZ         1    4    2    3
 -5  SZX         1    4    3    1
 -1        10 3.38493E-14-2.19704E-14 9.99990E+01-9.02755E-14-5.37235E-13 2.03331E-13
 -1        11-3.50026E-13-4.43427E-13 9.99990E+01-9.01086E-14 3.63936E-13-1.63357E-13
 -1        12 3.71296E-14-4.45661E-13 9.99990E+01 1.61995E-13-4.37999E-13 6.57575E-13
 -1        13-1.09145E-13-2.80154E-13 9.99990E+01-8.76020E-14-1.41438E-13-1.38502E-13
 -1        14 2.52134E-14-4.41689E-13 9.99990E+01-9.19498E-14-2.27482E-13 1.17865E-13
 -1        15-3.84383E-14-8.27480E-14 9.99990E+01-1.07773E-13-4.22055E-13 3.47253E-13
 -1        16 5.22314E-13 3.56646E-13 9.99990E+01-8.16872E-14-3.33090E-13-2.19166E-13
 -1        17 2.87962E-13 7.86024E-14 9.99990E+01-2.52106E-13-1.26263E-13-2.81734E-13
 -1        18 2.00083E-13-3.23983E-13 9.99990E+01 1.72923E-13-2.37901E-13 2.39918E-13
 -1        31-2.57396E-14 8.72330E-14 9.99990E+01 1.09572E-13 1.93179E-14 4.27110E-13
 -1        34 9.24803E-14 7.05235E-16 9.99990E+01 2.01665E-14 9.66348E-15 4.27265E-13
 -1        35 2.68688E-13 1.58204E-13 9.99990E+01 3.04359E-15-6.31192E-14 5.54730E-13
 -1        37 6.64163E-14-4.06341E-14 9.99990E+01 6.50685E-14-3.35012E-13 2.48177E-13
 -1        38 2.28480E-13 1.36912E-13 9.99990E+01-1.35355E-13-3.81292E-13 4.23721E-13
 -1        39-1.93250E-13-5.63994E-14 9.99990E+01 1.02604E-13-1.80806E-13 2.78187E-13
 -1        48-2.36017E-13-1.94943E-13 9.99990E+01 1.40307E-14-3.09664E-13-2.88013E-13
 -1        51-5.80383E-14-2.23570E-13 9.99990E+01 9.03932E-14-2.20177E-13 7.21186E-14
 -1        52-2.58304E-14 3.88423E-13 9.99990E+01 2.01967E-14-1.09166E-14-3.19061E-13
 -1        53 4.55283E-13 1.31647E-13 9.99990E+01-2.19164E-15-6.18585E-13-3.16914E-13
 -1        62 4.90985E-14 1.15381E-13 9.99990E+01-5.30702E-14-2.37266E-13-4.68366E-13
 -1        65-1.40823E-13-1.53061E-13 9.99990E+01-5.18942E-14-3.36318E-13-4.82519E-13
 -1        66-2.21904E-13-3.94652E-13 9.99990E+01-5.95283E-15-5.35976E-14-9.84454E-14
 -1        67-1.88215E-13-1.15855E-13 9.99990E+01 8.35361E-14 1.92085E-13 5.48247E-14
 -1        73 1.04573E-13 7.15220E-14 9.99990E+01 9.28438E-15-4.47692E-13-1.60240E-13
 -1        74-2.01969E-13-8.08463E-14 9.99990E+01 1.41696E-13 2.43312E-13 2.05350E-15
 -1       160-3.75570E-14-1.70929E-14 9.99990E+01-5.25162E-14 1.95053E-13 2.29477E-14
 -1       161 2.26266E-13-6.09445E-14 9.99990E+01-2.65165E-14-2.79052E-13 1.06029E-13
 -1       165 5.83425E-13-1.03375E-14 9.99990E+01 1.36463E-13-2.54027E-13-3.96477E-13
 -1       166 1.04224E-13-3.65122E-13 9.99990E+01-8.62434E-14-2.38680E-13-7.43341E-14
 -1       167 2.60553E-13-9.90007E-13 9.99990E+01 2.79527E-13-1.09823E-13-5.19189E-13
 -1       168 4.14045E-13-2.65821E-13 9.99990E+01-5.26778E-14-1.98906E-13-4.65382E-13
 -1       169-1.74485E-13 5.36107E-14 9.99990E+01 1.59039E-14-8.21661E-14-1.45156E-13
 -1       170-1.22452E-13 1.01423E-13 9.99990E+01-1.00134E-13-1.21018E-13-1.11939E-13
 -1       171 3.65098E-13 2.25975E-13 9.99990E+01 1.93023E-13-8.41584E-14-5.01004E-13
 -1       172 2.05429E-13 1.27945E-13 9.99990E+01-1.68726E-14-5.06335E-14-2.66728E-13
 -1       173-4.48439E-14-1.03192E-13 9.99990E+01-2.77986E-15-9.90100E-14-3.25480E-13
 -1       174-3.01828E-13-3.80751E-13 9.99990E+01 1.03362E-13 3.84952E-14-2.09071E-13
 -1       175 1.22433E-12 2.50338E-13 9.99990E+01 1.85621E-13-6.48081E-15-6.01765E-13
 -1       176 4.40567E-13-3.22091E-14 9.99990E+01 2.81238E-13-7.39088E-14-2.93244E-13
 -1       177 9.95871E-14-1.37048E-13 9.99990E+01 6.45565E-14-6.82450E-14-1.33695E-13
 -1       178 1.10849E-13-1.60112E-14 9.99990E+01 1.44669E-13-1.40106E-13-1.81896E-13
 -1       179-2.51116E-13 3.16029E-14 9.99990E+01 1.27411E-13-2.94785E-13-2.07352E-13
 -1       180 2.73776E-13 2.09598E-13 9.99990E+01 6.53006E-14 2.79212E-15 8.61476E-14
 -1       181 4.29648E-14 1.48651E-15 9.99990E+01-6.22064E-14-3.01677E-13-2.37749E-13
 -1       182-2.42888E-13-4.96057E-14 9.99990E+01-1.64789E-13-2.13592E-13-1.28395E-13
 -1       183-6.72146E-14-1.52023E-14 9.99990E+01-9.76105E-14-7.47948E-14-2.82985E-13
 -1       184-1.52345E-13-6.89149E-14 9.99990E+01-6.67343E-14-2.00380E-13-2.51314E-13
 -1       185-1.80877E-13-1.03249E-13 9.99990E+01 1.58454E-13-6.33332E-14-1.35165E-13
 -1       186 9.87635E-14 2.24873E-13 9.99990E+01 2.99382E-15-1.28627E-13-5.18779E-14
 -1       187 1.54930E-14 2.03611E-13 9.99990E+01 5.89082E-14-4.60606E-13-1.37047E-13
 -1       188-8.74841E-14 3.32643E-13 9.99990E+01 7.03577E-14 1.44006E-13-3.51609E-13
 -1       189-5.68589E-14 9.06262E-14 9.99990E+01-4.51139E-14-2.16619E-14-3.09008E-13
 -1       190 2.94068E-13 3.71536E-13 9.99990E+01 4.48749E-14-1.39743E-13-3.09749E-13
 -1       191-1.89142E-13-1.58500E-13 9.99990E+01 5.94972E-14-5.48952E-14 1.16176E-13
 -1       192-3.07027E-14 4.06208E-14 9.99990E+01 8.05630E-14-2.78769E-14 2.86099E-13
 -1       193-4.61884E-14-1.41235E-13 9.99990E+01 5.07412E-17-1.53824E-13-1.83189E-13
 -1       194 1.19668E-15-2.05147E-14 9.99990E+01-1.07955E-13-2.55952E-13-3.24504E-13
 -1       195 1.87010E-14 3.96832E-14 9.99990E+01 5.52468E-14 9.92084E-14 1.86219E-13
 -1       196 1.61313E-13 2.22411E-13 9.99990E+01-4.84178E-14-5.72936E-13 3.57651E-13
 -1       197 1.77393E-14-3.12534E-13 9.99990E+01 8.19790E-14-1.49077E-13 2.11853E-13
 -1       198 2.08163E-13-2.32306E-15 9.99990E+01-1.15088E-13-6.20921E-13-1.02071E-13
 -1       199-1.13389E-13 4.00918E-14 9.99990E+01-1.00327E-14-5.32823E-13 2.02119E-13
 -1       200-7.86331E-14-1.08757E-13 9.99990E+01-1.20724E-14 1.50920E-13 9.16409E-14
 -1       201 6.70869E-14-1.39424E-13 9.99990E+01-1.01671E-13-1.87293E-14 1.68145E-13
 -1       202 1.12714E-13 2.74878E-13 9.99990E+01 6.12182E-14 2.67849E-13-1.56857E-13
 -1       203-3.60076E-14 8.07312E-14 9.99990E+01-2.20759E-14-1.67095E-13-1.83907E-13
 -1       204 3.25770E-13 1.86120E-13 9.99990E+01 1.40868E-14 1.50358E-13-6.31474E-13
 -1       205-1.11513E-14-5.94411E-14 9.99990E+01-7.28137E-14-1.78474E-13-4.14362E-13
 -1       206-2.08609E-13 8.87422E-14 9.99990E+01-1.31304E-14 1.64197E-13-5.24021E-13
 -1       207-3.53649E-13-7.81083E-14 9.99990E+01 3.78266E-15 2.61111E-13-5.93097E-13
 -1       208-4.09087E-13-9.84627E-14 9.99990E+01-7.55677E-14 4.08495E-14-2.76153E-13
 -1       209-1.19228E-13 4.35930E-15 9.99990E+01-6.28402E-14-3.03746E-13-1.94066E-13
 -1       210-1.26935E-14 1.29332E-13 9.99990E+01-1.30306E-13-3.75665E-13-6.75866E-14
 -1       211-1.65101E-13-1.40553E-13 9.99990E+01 1.02745E-13-2.90259E-13-3.99555E-13
 -1       212-4.84062E-13-1.35111E-13 9.99990E+01 3.59410E-14 2.78734E-13 1.15378E-14
 -1       213-1.72354E-13-1.53613E-13 9.99990E+01-6.12929E-14-2.73853E-13-1.14985E-14
 -1       214 5.67059E-14 1.05074E-13 9.99990E+01-9.75603E-14-1.57289E-13-2.60436E-13
 -1       215-5.70184E-14 1.25658E-13 9.99990E+01-2.97389E-14-7.49023E-14-2.41798E-13
 -1       216-8.58395E-14 1.86165E-13 9.99990E+01 6.50833E-14 2.40241E-14-1.50300E-13
 -1       217-2.78879E-14 3.68277E-14 9.99990E+01-6.67651E-14-2.38113E-13-1.99896E-13
 -1       218 1.65500E-13 1.50217E-13 9.99990E+01-2.63311E-14 4.28201E-14-4.01567E-13
 -1       219 1.15554E-12 3.53159E-14 9.99990E+01 5.91792E-13 1.02296E-14-7.37351E-13
 -1       220-2.23565E-13-8.98445E-14 9.99990E+01-9.99703E-14-2.12915E-13-5.41080E-14
 -1       221 7.04005E-13-8.73545E-13 9.99990E+01 4.71974E-14-2.76007E-13-4.91997E-13
 -1       222-1.89401E-13-1.15289E-14 9.99990E+01-1.41419E-14 1.28641E-13-6.29053E-13
 -1       223 2.18755E-13 2.15093E-14 9.99990E+01-5.96636E-14-7.25941E-13 7.47728E-14
 -1       224 7.57772E-14 1.85855E-15 9.99990E+01-1.44690E-13-3.56797E-13-1.20248E-13
 -1       225 1.43280E-13-3.37745E-14 9.99990E+01 1.18042E-13-5.61596E-14-1.35986E-13
 -1       226-1.31424E-13 2.15033E-15 9.99990E+01 5.52080E-14 1.25339E-13 1.63339E-13
 -1       227-1.90507E-13 9.70359E-15 9.99990E+01 1.05498E-13-7.82012E-14-1.53358E-13
 -3
    1PSTEP                         6           1           1          
  100CL  101 1.000000000          90                     0    1           1
 -4  ERROR       1    1
 -5  STR(%)      1    1    0    0
 -1        10 3.96483E-13
 -1        11 6.69331E-13
 -1        12 2.30216E-13
 -1        13 5.32907E-13
 -1        14 4.49774E-13
 -1        15 3.13349E-13
 -1        16 2.89901E-13
 -1        17 4.79616E-13
 -1        18 2.60059E-13
 -1        31 9.29390E-13
 -1        34 1.01466E-12
 -1        35 9.72022E-13
 -1        37 6.62936E-13
 -1        38 7.05569E-13
 -1        39 6.22435E-13
 -1        48 1.01466E-12
 -1        51 1.01466E-12
 -1        52 6.52278E-13
 -1        53 6.52278E-13
 -1        62 9.29390E-13
 -1        65 9.72022E-13
 -1        66 8.41993E-13
 -1        67 7.99361E-13
 -1        73 9.29390E-13
 -1        74 7.99361E-13
 -1       160 8.41993E-13
 -1       161 9.72022E-13
 -1       165 3.07807E-12
 -1       166 3.15268E-12
 -1       167 3.15268E-12
 -1       168 3.15268E-12
 -1       169 3.26139E-12
 -1       170 3.26139E-12
 -1       171 3.26139E-12
 -1       172 3.18678E-12
 -1       173 3.18678E-12
 -1       174 2.85851E-12
 -1       175 3.26139E-12
 -1       176 3.26139E-12
 -1       177 3.26139E-12
 -1       178 3.18678E-12
 -1       179 2.39595E-12
 -1       180 2.42579E-12
 -1       181 2.43006E-12
 -1       182 3.18678E-12
 -1       183 3.11218E-12
 -1       184 2.78391E-12
 -1       185 2.06768E-12
 -1       186 2.10179E-12
 -1       187 1.96749E-12
 -1       188 2.10179E-12
 -1       189 2.78391E-12
 -1       190 1.30456E-12
 -1       191 1.70957E-12
 -1       192 1.30456E-12
 -1       193 1.71383E-12
 -1       194 1.57954E-12
 -1       195 1.20437E-12
 -1       196 1.24700E-12
 -1       197 1.24700E-12
 -1       198 1.61364E-12
 -1       199 1.61364E-12
 -1       200 1.33866E-12
 -1       201 1.38130E-12
 -1       202 2.42579E-12
 -1       203 2.43006E-12
 -1       204 2.43006E-12
 -1       205 3.18678E-12
 -1       206 1.33866E-12
 -1       207 1.38130E-12
 -1       208 1.74367E-12
 -1       209 1.74794E-12
 -1       210 1.38130E-12
 -1       211 2.50040E-12
 -1       212 1.33440E-12
 -1       213 1.74367E-12
 -1       214 1.33866E-12
 -1       215 3.26139E-12
 -1       216 2.45564E-12
 -1       217 3.11218E-12
 -1       218 3.11218E-12
 -1       219 3.26139E-12
 -1       220 3.26139E-12
 -1       221 3.04397E-12
 -1       222 1.74794E-12
 -1       223 1.47935E-12
 -1       224 1.74794E-12
 -1       225 3.26139E-12
 -1       226 1.73941E-12
 -1       227 1.67972E-12
 -3
 9999
