
                        S T E P       1


                                INCREMENT    10


 displacements (vx,vy,vz) for set N1 and time  0.1000000E-03

       100  2.236158E-15 -2.394725E-02 -1.120373E-17
