    1C
    1UModel: beam     Date: 10-Mar-1998                                 
    1UUSER                                                              
    1UDATE              15.january.2025                                 
    1UTIME              11:38:44                                        
    1UHOST                                                              
    1UPGM               CalculiX                                        
    1UVERSION           Version DEVELOPMENT                             
    1UCOMPILETIME       Tue Jan 14 19:00:46 CET 2025                    
    1UDIR                                                               
    1UDBN                                                               
    1UMAT    1EL                                                        
    2C                           261                                     1
 -1         1 0.00000E+00 0.00000E+00 0.00000E+00
 -1         2 1.00000E+00 0.00000E+00 0.00000E+00
 -1         3 1.00000E+00 1.00000E+00 0.00000E+00
 -1         4 0.00000E+00 1.00000E+00 0.00000E+00
 -1         5 0.00000E+00 0.00000E+00 8.00000E+00
 -1         6 1.00000E+00 0.00000E+00 8.00000E+00
 -1         7 1.00000E+00 1.00000E+00 8.00000E+00
 -1         8 0.00000E+00 1.00000E+00 8.00000E+00
 -1         9 2.50000E-01 0.00000E+00 0.00000E+00
 -1        10 5.00000E-01 0.00000E+00 0.00000E+00
 -1        11 7.50000E-01 0.00000E+00 0.00000E+00
 -1        12 1.00000E+00 2.50000E-01 0.00000E+00
 -1        13 1.00000E+00 5.00000E-01 0.00000E+00
 -1        14 1.00000E+00 7.50000E-01 0.00000E+00
 -1        15 7.50000E-01 1.00000E+00 0.00000E+00
 -1        16 5.00000E-01 1.00000E+00 0.00000E+00
 -1        17 2.50000E-01 1.00000E+00 0.00000E+00
 -1        18 0.00000E+00 7.50000E-01 0.00000E+00
 -1        19 0.00000E+00 5.00000E-01 0.00000E+00
 -1        20 0.00000E+00 2.50000E-01 0.00000E+00
 -1        21 2.50000E-01 0.00000E+00 8.00000E+00
 -1        22 5.00000E-01 0.00000E+00 8.00000E+00
 -1        23 7.50000E-01 0.00000E+00 8.00000E+00
 -1        24 1.00000E+00 2.50000E-01 8.00000E+00
 -1        25 1.00000E+00 5.00000E-01 8.00000E+00
 -1        26 1.00000E+00 7.50000E-01 8.00000E+00
 -1        27 7.50000E-01 1.00000E+00 8.00000E+00
 -1        28 5.00000E-01 1.00000E+00 8.00000E+00
 -1        29 2.50000E-01 1.00000E+00 8.00000E+00
 -1        30 0.00000E+00 7.50000E-01 8.00000E+00
 -1        31 0.00000E+00 5.00000E-01 8.00000E+00
 -1        32 0.00000E+00 2.50000E-01 8.00000E+00
 -1        33 1.00000E+00 0.00000E+00 5.00000E-01
 -1        34 1.00000E+00 0.00000E+00 1.00000E+00
 -1        35 1.00000E+00 0.00000E+00 1.50000E+00
 -1        36 1.00000E+00 0.00000E+00 2.00000E+00
 -1        37 1.00000E+00 0.00000E+00 2.50000E+00
 -1        38 1.00000E+00 0.00000E+00 3.00000E+00
 -1        39 1.00000E+00 0.00000E+00 3.50000E+00
 -1        40 1.00000E+00 0.00000E+00 4.00000E+00
 -1        41 1.00000E+00 0.00000E+00 4.50000E+00
 -1        42 1.00000E+00 0.00000E+00 5.00000E+00
 -1        43 1.00000E+00 0.00000E+00 5.50000E+00
 -1        44 1.00000E+00 0.00000E+00 6.00000E+00
 -1        45 1.00000E+00 0.00000E+00 6.50000E+00
 -1        46 1.00000E+00 0.00000E+00 7.00000E+00
 -1        47 1.00000E+00 0.00000E+00 7.50000E+00
 -1        48 0.00000E+00 0.00000E+00 7.50000E+00
 -1        49 0.00000E+00 0.00000E+00 7.00000E+00
 -1        50 0.00000E+00 0.00000E+00 6.50000E+00
 -1        51 0.00000E+00 0.00000E+00 6.00000E+00
 -1        52 0.00000E+00 0.00000E+00 5.50000E+00
 -1        53 0.00000E+00 0.00000E+00 5.00000E+00
 -1        54 0.00000E+00 0.00000E+00 4.50000E+00
 -1        55 0.00000E+00 0.00000E+00 4.00000E+00
 -1        56 0.00000E+00 0.00000E+00 3.50000E+00
 -1        57 0.00000E+00 0.00000E+00 3.00000E+00
 -1        58 0.00000E+00 0.00000E+00 2.50000E+00
 -1        59 0.00000E+00 0.00000E+00 2.00000E+00
 -1        60 0.00000E+00 0.00000E+00 1.50000E+00
 -1        61 0.00000E+00 0.00000E+00 1.00000E+00
 -1        62 0.00000E+00 0.00000E+00 5.00000E-01
 -1        63 1.00000E+00 1.00000E+00 5.00000E-01
 -1        64 1.00000E+00 1.00000E+00 1.00000E+00
 -1        65 1.00000E+00 1.00000E+00 1.50000E+00
 -1        66 1.00000E+00 1.00000E+00 2.00000E+00
 -1        67 1.00000E+00 1.00000E+00 2.50000E+00
 -1        68 1.00000E+00 1.00000E+00 3.00000E+00
 -1        69 1.00000E+00 1.00000E+00 3.50000E+00
 -1        70 1.00000E+00 1.00000E+00 4.00000E+00
 -1        71 1.00000E+00 1.00000E+00 4.50000E+00
 -1        72 1.00000E+00 1.00000E+00 5.00000E+00
 -1        73 1.00000E+00 1.00000E+00 5.50000E+00
 -1        74 1.00000E+00 1.00000E+00 6.00000E+00
 -1        75 1.00000E+00 1.00000E+00 6.50000E+00
 -1        76 1.00000E+00 1.00000E+00 7.00000E+00
 -1        77 1.00000E+00 1.00000E+00 7.50000E+00
 -1        78 0.00000E+00 1.00000E+00 5.00000E-01
 -1        79 0.00000E+00 1.00000E+00 1.00000E+00
 -1        80 0.00000E+00 1.00000E+00 1.50000E+00
 -1        81 0.00000E+00 1.00000E+00 2.00000E+00
 -1        82 0.00000E+00 1.00000E+00 2.50000E+00
 -1        83 0.00000E+00 1.00000E+00 3.00000E+00
 -1        84 0.00000E+00 1.00000E+00 3.50000E+00
 -1        85 0.00000E+00 1.00000E+00 4.00000E+00
 -1        86 0.00000E+00 1.00000E+00 4.50000E+00
 -1        87 0.00000E+00 1.00000E+00 5.00000E+00
 -1        88 0.00000E+00 1.00000E+00 5.50000E+00
 -1        89 0.00000E+00 1.00000E+00 6.00000E+00
 -1        90 0.00000E+00 1.00000E+00 6.50000E+00
 -1        91 0.00000E+00 1.00000E+00 7.00000E+00
 -1        92 0.00000E+00 1.00000E+00 7.50000E+00
 -1        93 5.00000E-01 2.50000E-01 0.00000E+00
 -1        94 2.50000E-01 5.00000E-01 0.00000E+00
 -1        95 5.00000E-01 5.00000E-01 0.00000E+00
 -1        96 7.50000E-01 5.00000E-01 0.00000E+00
 -1        97 5.00000E-01 7.50000E-01 0.00000E+00
 -1        98 5.00000E-01 2.50000E-01 8.00000E+00
 -1        99 2.50000E-01 5.00000E-01 8.00000E+00
 -1       100 5.00000E-01 5.00000E-01 8.00000E+00
 -1       101 7.50000E-01 5.00000E-01 8.00000E+00
 -1       102 5.00000E-01 7.50000E-01 8.00000E+00
 -1       103 5.00000E-01 0.00000E+00 5.00000E-01
 -1       104 2.50000E-01 0.00000E+00 1.00000E+00
 -1       105 5.00000E-01 0.00000E+00 1.00000E+00
 -1       106 7.50000E-01 0.00000E+00 1.00000E+00
 -1       107 5.00000E-01 0.00000E+00 1.50000E+00
 -1       108 2.50000E-01 0.00000E+00 2.00000E+00
 -1       109 5.00000E-01 0.00000E+00 2.00000E+00
 -1       110 7.50000E-01 0.00000E+00 2.00000E+00
 -1       111 5.00000E-01 0.00000E+00 2.50000E+00
 -1       112 2.50000E-01 0.00000E+00 3.00000E+00
 -1       113 5.00000E-01 0.00000E+00 3.00000E+00
 -1       114 7.50000E-01 0.00000E+00 3.00000E+00
 -1       115 5.00000E-01 0.00000E+00 3.50000E+00
 -1       116 2.50000E-01 0.00000E+00 4.00000E+00
 -1       117 5.00000E-01 0.00000E+00 4.00000E+00
 -1       118 7.50000E-01 0.00000E+00 4.00000E+00
 -1       119 5.00000E-01 0.00000E+00 4.50000E+00
 -1       120 2.50000E-01 0.00000E+00 5.00000E+00
 -1       121 5.00000E-01 0.00000E+00 5.00000E+00
 -1       122 7.50000E-01 0.00000E+00 5.00000E+00
 -1       123 5.00000E-01 0.00000E+00 5.50000E+00
 -1       124 2.50000E-01 0.00000E+00 6.00000E+00
 -1       125 5.00000E-01 0.00000E+00 6.00000E+00
 -1       126 7.50000E-01 0.00000E+00 6.00000E+00
 -1       127 5.00000E-01 0.00000E+00 6.50000E+00
 -1       128 2.50000E-01 0.00000E+00 7.00000E+00
 -1       129 5.00000E-01 0.00000E+00 7.00000E+00
 -1       130 7.50000E-01 0.00000E+00 7.00000E+00
 -1       131 5.00000E-01 0.00000E+00 7.50000E+00
 -1       132 1.00000E+00 5.00000E-01 5.00000E-01
 -1       133 1.00000E+00 2.50000E-01 1.00000E+00
 -1       134 1.00000E+00 5.00000E-01 1.00000E+00
 -1       135 1.00000E+00 7.50000E-01 1.00000E+00
 -1       136 1.00000E+00 5.00000E-01 1.50000E+00
 -1       137 1.00000E+00 2.50000E-01 2.00000E+00
 -1       138 1.00000E+00 5.00000E-01 2.00000E+00
 -1       139 1.00000E+00 7.50000E-01 2.00000E+00
 -1       140 1.00000E+00 5.00000E-01 2.50000E+00
 -1       141 1.00000E+00 2.50000E-01 3.00000E+00
 -1       142 1.00000E+00 5.00000E-01 3.00000E+00
 -1       143 1.00000E+00 7.50000E-01 3.00000E+00
 -1       144 1.00000E+00 5.00000E-01 3.50000E+00
 -1       145 1.00000E+00 2.50000E-01 4.00000E+00
 -1       146 1.00000E+00 5.00000E-01 4.00000E+00
 -1       147 1.00000E+00 7.50000E-01 4.00000E+00
 -1       148 1.00000E+00 5.00000E-01 4.50000E+00
 -1       149 1.00000E+00 2.50000E-01 5.00000E+00
 -1       150 1.00000E+00 5.00000E-01 5.00000E+00
 -1       151 1.00000E+00 7.50000E-01 5.00000E+00
 -1       152 1.00000E+00 5.00000E-01 5.50000E+00
 -1       153 1.00000E+00 2.50000E-01 6.00000E+00
 -1       154 1.00000E+00 5.00000E-01 6.00000E+00
 -1       155 1.00000E+00 7.50000E-01 6.00000E+00
 -1       156 1.00000E+00 5.00000E-01 6.50000E+00
 -1       157 1.00000E+00 2.50000E-01 7.00000E+00
 -1       158 1.00000E+00 5.00000E-01 7.00000E+00
 -1       159 1.00000E+00 7.50000E-01 7.00000E+00
 -1       160 1.00000E+00 5.00000E-01 7.50000E+00
 -1       161 5.00000E-01 1.00000E+00 5.00000E-01
 -1       162 7.50000E-01 1.00000E+00 1.00000E+00
 -1       163 5.00000E-01 1.00000E+00 1.00000E+00
 -1       164 2.50000E-01 1.00000E+00 1.00000E+00
 -1       165 5.00000E-01 1.00000E+00 1.50000E+00
 -1       166 7.50000E-01 1.00000E+00 2.00000E+00
 -1       167 5.00000E-01 1.00000E+00 2.00000E+00
 -1       168 2.50000E-01 1.00000E+00 2.00000E+00
 -1       169 5.00000E-01 1.00000E+00 2.50000E+00
 -1       170 7.50000E-01 1.00000E+00 3.00000E+00
 -1       171 5.00000E-01 1.00000E+00 3.00000E+00
 -1       172 2.50000E-01 1.00000E+00 3.00000E+00
 -1       173 5.00000E-01 1.00000E+00 3.50000E+00
 -1       174 7.50000E-01 1.00000E+00 4.00000E+00
 -1       175 5.00000E-01 1.00000E+00 4.00000E+00
 -1       176 2.50000E-01 1.00000E+00 4.00000E+00
 -1       177 5.00000E-01 1.00000E+00 4.50000E+00
 -1       178 7.50000E-01 1.00000E+00 5.00000E+00
 -1       179 5.00000E-01 1.00000E+00 5.00000E+00
 -1       180 2.50000E-01 1.00000E+00 5.00000E+00
 -1       181 5.00000E-01 1.00000E+00 5.50000E+00
 -1       182 7.50000E-01 1.00000E+00 6.00000E+00
 -1       183 5.00000E-01 1.00000E+00 6.00000E+00
 -1       184 2.50000E-01 1.00000E+00 6.00000E+00
 -1       185 5.00000E-01 1.00000E+00 6.50000E+00
 -1       186 7.50000E-01 1.00000E+00 7.00000E+00
 -1       187 5.00000E-01 1.00000E+00 7.00000E+00
 -1       188 2.50000E-01 1.00000E+00 7.00000E+00
 -1       189 5.00000E-01 1.00000E+00 7.50000E+00
 -1       190 0.00000E+00 5.00000E-01 5.00000E-01
 -1       191 0.00000E+00 7.50000E-01 1.00000E+00
 -1       192 0.00000E+00 5.00000E-01 1.00000E+00
 -1       193 0.00000E+00 2.50000E-01 1.00000E+00
 -1       194 0.00000E+00 5.00000E-01 1.50000E+00
 -1       195 0.00000E+00 7.50000E-01 2.00000E+00
 -1       196 0.00000E+00 5.00000E-01 2.00000E+00
 -1       197 0.00000E+00 2.50000E-01 2.00000E+00
 -1       198 0.00000E+00 5.00000E-01 2.50000E+00
 -1       199 0.00000E+00 7.50000E-01 3.00000E+00
 -1       200 0.00000E+00 5.00000E-01 3.00000E+00
 -1       201 0.00000E+00 2.50000E-01 3.00000E+00
 -1       202 0.00000E+00 5.00000E-01 3.50000E+00
 -1       203 0.00000E+00 7.50000E-01 4.00000E+00
 -1       204 0.00000E+00 5.00000E-01 4.00000E+00
 -1       205 0.00000E+00 2.50000E-01 4.00000E+00
 -1       206 0.00000E+00 5.00000E-01 4.50000E+00
 -1       207 0.00000E+00 7.50000E-01 5.00000E+00
 -1       208 0.00000E+00 5.00000E-01 5.00000E+00
 -1       209 0.00000E+00 2.50000E-01 5.00000E+00
 -1       210 0.00000E+00 5.00000E-01 5.50000E+00
 -1       211 0.00000E+00 7.50000E-01 6.00000E+00
 -1       212 0.00000E+00 5.00000E-01 6.00000E+00
 -1       213 0.00000E+00 2.50000E-01 6.00000E+00
 -1       214 0.00000E+00 5.00000E-01 6.50000E+00
 -1       215 0.00000E+00 7.50000E-01 7.00000E+00
 -1       216 0.00000E+00 5.00000E-01 7.00000E+00
 -1       217 0.00000E+00 2.50000E-01 7.00000E+00
 -1       218 0.00000E+00 5.00000E-01 7.50000E+00
 -1       219 5.00000E-01 5.00000E-01 5.00000E-01
 -1       220 5.00000E-01 2.50000E-01 1.00000E+00
 -1       221 2.50000E-01 5.00000E-01 1.00000E+00
 -1       222 5.00000E-01 5.00000E-01 1.00000E+00
 -1       223 7.50000E-01 5.00000E-01 1.00000E+00
 -1       224 5.00000E-01 7.50000E-01 1.00000E+00
 -1       225 5.00000E-01 5.00000E-01 1.50000E+00
 -1       226 5.00000E-01 2.50000E-01 2.00000E+00
 -1       227 2.50000E-01 5.00000E-01 2.00000E+00
 -1       228 5.00000E-01 5.00000E-01 2.00000E+00
 -1       229 7.50000E-01 5.00000E-01 2.00000E+00
 -1       230 5.00000E-01 7.50000E-01 2.00000E+00
 -1       231 5.00000E-01 5.00000E-01 2.50000E+00
 -1       232 5.00000E-01 2.50000E-01 3.00000E+00
 -1       233 2.50000E-01 5.00000E-01 3.00000E+00
 -1       234 5.00000E-01 5.00000E-01 3.00000E+00
 -1       235 7.50000E-01 5.00000E-01 3.00000E+00
 -1       236 5.00000E-01 7.50000E-01 3.00000E+00
 -1       237 5.00000E-01 5.00000E-01 3.50000E+00
 -1       238 5.00000E-01 2.50000E-01 4.00000E+00
 -1       239 2.50000E-01 5.00000E-01 4.00000E+00
 -1       240 5.00000E-01 5.00000E-01 4.00000E+00
 -1       241 7.50000E-01 5.00000E-01 4.00000E+00
 -1       242 5.00000E-01 7.50000E-01 4.00000E+00
 -1       243 5.00000E-01 5.00000E-01 4.50000E+00
 -1       244 5.00000E-01 2.50000E-01 5.00000E+00
 -1       245 2.50000E-01 5.00000E-01 5.00000E+00
 -1       246 5.00000E-01 5.00000E-01 5.00000E+00
 -1       247 7.50000E-01 5.00000E-01 5.00000E+00
 -1       248 5.00000E-01 7.50000E-01 5.00000E+00
 -1       249 5.00000E-01 5.00000E-01 5.50000E+00
 -1       250 5.00000E-01 2.50000E-01 6.00000E+00
 -1       251 2.50000E-01 5.00000E-01 6.00000E+00
 -1       252 5.00000E-01 5.00000E-01 6.00000E+00
 -1       253 7.50000E-01 5.00000E-01 6.00000E+00
 -1       254 5.00000E-01 7.50000E-01 6.00000E+00
 -1       255 5.00000E-01 5.00000E-01 6.50000E+00
 -1       256 5.00000E-01 2.50000E-01 7.00000E+00
 -1       257 2.50000E-01 5.00000E-01 7.00000E+00
 -1       258 5.00000E-01 5.00000E-01 7.00000E+00
 -1       259 7.50000E-01 5.00000E-01 7.00000E+00
 -1       260 5.00000E-01 7.50000E-01 7.00000E+00
 -1       261 5.00000E-01 5.00000E-01 7.50000E+00
 -3
    3C                            32                                     1
 -1         1    4    0    1
 -2         1        10        95        19        61       105       222       192         9        93
 -2        94        20        62       103       219       190       104       220       221       193
 -1         2    4    0    1
 -2        10         2        13        95       105        34       134       222        11        12
 -2        96        93       103        33       132       219       106       133       223       220
 -1         3    4    0    1
 -2        19        95        16         4       192       222       163        79        94        97
 -2        17        18       190       219       161        78       221       224       164       191
 -1         4    4    0    1
 -2        95        13         3        16       222       134        64       163        96        14
 -2        15        97       219       132        63       161       223       135       162       224
 -1         5    4    0    1
 -2        61       105       222       192        59       109       228       196       104       220
 -2       221       193        60       107       225       194       108       226       227       197
 -1         6    4    0    1
 -2       105        34       134       222       109        36       138       228       106       133
 -2       223       220       107        35       136       225       110       137       229       226
 -1         7    4    0    1
 -2       192       222       163        79       196       228       167        81       221       224
 -2       164       191       194       225       165        80       227       230       168       195
 -1         8    4    0    1
 -2       222       134        64       163       228       138        66       167       223       135
 -2       162       224       225       136        65       165       229       139       166       230
 -1         9    4    0    1
 -2        59       109       228       196        57       113       234       200       108       226
 -2       227       197        58       111       231       198       112       232       233       201
 -1        10    4    0    1
 -2       109        36       138       228       113        38       142       234       110       137
 -2       229       226       111        37       140       231       114       141       235       232
 -1        11    4    0    1
 -2       196       228       167        81       200       234       171        83       227       230
 -2       168       195       198       231       169        82       233       236       172       199
 -1        12    4    0    1
 -2       228       138        66       167       234       142        68       171       229       139
 -2       166       230       231       140        67       169       235       143       170       236
 -1        13    4    0    1
 -2        57       113       234       200        55       117       240       204       112       232
 -2       233       201        56       115       237       202       116       238       239       205
 -1        14    4    0    1
 -2       113        38       142       234       117        40       146       240       114       141
 -2       235       232       115        39       144       237       118       145       241       238
 -1        15    4    0    1
 -2       200       234       171        83       204       240       175        85       233       236
 -2       172       199       202       237       173        84       239       242       176       203
 -1        16    4    0    1
 -2       234       142        68       171       240       146        70       175       235       143
 -2       170       236       237       144        69       173       241       147       174       242
 -1        17    4    0    1
 -2        55       117       240       204        53       121       246       208       116       238
 -2       239       205        54       119       243       206       120       244       245       209
 -1        18    4    0    1
 -2       117        40       146       240       121        42       150       246       118       145
 -2       241       238       119        41       148       243       122       149       247       244
 -1        19    4    0    1
 -2       204       240       175        85       208       246       179        87       239       242
 -2       176       203       206       243       177        86       245       248       180       207
 -1        20    4    0    1
 -2       240       146        70       175       246       150        72       179       241       147
 -2       174       242       243       148        71       177       247       151       178       248
 -1        21    4    0    1
 -2        53       121       246       208        51       125       252       212       120       244
 -2       245       209        52       123       249       210       124       250       251       213
 -1        22    4    0    1
 -2       121        42       150       246       125        44       154       252       122       149
 -2       247       244       123        43       152       249       126       153       253       250
 -1        23    4    0    1
 -2       208       246       179        87       212       252       183        89       245       248
 -2       180       207       210       249       181        88       251       254       184       211
 -1        24    4    0    1
 -2       246       150        72       179       252       154        74       183       247       151
 -2       178       248       249       152        73       181       253       155       182       254
 -1        25    4    0    1
 -2        51       125       252       212        49       129       258       216       124       250
 -2       251       213        50       127       255       214       128       256       257       217
 -1        26    4    0    1
 -2       125        44       154       252       129        46       158       258       126       153
 -2       253       250       127        45       156       255       130       157       259       256
 -1        27    4    0    1
 -2       212       252       183        89       216       258       187        91       251       254
 -2       184       211       214       255       185        90       257       260       188       215
 -1        28    4    0    1
 -2       252       154        74       183       258       158        76       187       253       155
 -2       182       254       255       156        75       185       259       159       186       260
 -1        29    4    0    1
 -2        49       129       258       216         5        22       100        31       128       256
 -2       257       217        48       131       261       218        21        98        99        32
 -1        30    4    0    1
 -2       129        46       158       258        22         6        25       100       130       157
 -2       259       256       131        47       160       261        23        24       101        98
 -1        31    4    0    1
 -2       216       258       187        91        31       100        28         8       257       260
 -2       188       215       218       261       189        92        99       102        29        30
 -1        32    4    0    1
 -2       258       158        76       187       100        25         7        28       259       159
 -2       186       260       261       160        77       189       101        26        27       102
 -3
    1PSTEP                         1           1           1          
  100CL  101 1.000000000         261                     0    1           1
 -4  DISP        4    1
 -5  D1          1    2    1    0
 -5  D2          1    2    2    0
 -5  D3          1    2    3    0
 -5  ALL         1    2    0    0    1ALL
 -1         1 0.00000E+00 0.00000E+00 0.00000E+00
 -1         2-3.19952E-04 0.00000E+00 0.00000E+00
 -1         3-1.53185E-04 4.58626E-04 0.00000E+00
 -1         4-1.66766E-04 4.58626E-04 0.00000E+00
 -1         5-1.91784E-04 8.91888E-02 7.66376E-03
 -1         6-1.28168E-04 8.91888E-02 7.66376E-03
 -1         7-1.92845E-04 8.90515E-02-8.84107E-03
 -1         8-1.27107E-04 8.90515E-02-8.84107E-03
 -1         9-7.27725E-05 4.14497E-04 0.00000E+00
 -1        10-1.59976E-04 5.66647E-04 0.00000E+00
 -1        11-2.47179E-04 4.14497E-04 0.00000E+00
 -1        12-1.29772E-04 2.89670E-04 0.00000E+00
 -1        13-1.39640E-04 5.23075E-04 0.00000E+00
 -1        14-1.62247E-04 4.99745E-04 0.00000E+00
 -1        15-1.55934E-04 4.93089E-04 0.00000E+00
 -1        16-1.59976E-04 4.84680E-04 0.00000E+00
 -1        17-1.64018E-04 4.93089E-04 0.00000E+00
 -1        18-1.57705E-04 4.99745E-04 0.00000E+00
 -1        19-1.80311E-04 5.23075E-04 0.00000E+00
 -1        20-1.90179E-04 2.89670E-04 0.00000E+00
 -1        21-1.77081E-04 8.91145E-02 7.65579E-03
 -1        22-1.59976E-04 8.91040E-02 7.64508E-03
 -1        23-1.42870E-04 8.91145E-02 7.65579E-03
 -1        24-1.62877E-04 8.90936E-02 3.51434E-03
 -1        25-1.60204E-04 8.90177E-02-5.88236E-04
 -1        26-1.57856E-04 8.90257E-02-4.69179E-03
 -1        27-1.77616E-04 8.89777E-02-8.83277E-03
 -1        28-1.59976E-04 8.89679E-02-8.82213E-03
 -1        29-1.42335E-04 8.89777E-02-8.83277E-03
 -1        30-1.62095E-04 8.90257E-02-4.69179E-03
 -1        31-1.59747E-04 8.90177E-02-5.88236E-04
 -1        32-1.57075E-04 8.90936E-02 3.51434E-03
 -1        33-2.21196E-04 9.79049E-04 1.01390E-03
 -1        34-1.34504E-04 2.50116E-03 1.92446E-03
 -1        35-1.51832E-04 4.98052E-03 2.79795E-03
 -1        36-1.63369E-04 8.18754E-03 3.58028E-03
 -1        37-1.63359E-04 1.22428E-02 4.30849E-03
 -1        38-1.58368E-04 1.69797E-02 4.95934E-03
 -1        39-1.59354E-04 2.23662E-02 5.54203E-03
 -1        40-1.60093E-04 2.83228E-02 6.05212E-03
 -1        41-1.60308E-04 3.47978E-02 6.49266E-03
 -1        42-1.60285E-04 4.17218E-02 6.86233E-03
 -1        43-1.59220E-04 4.90303E-02 7.16350E-03
 -1        44-1.58945E-04 5.66657E-02 7.39481E-03
 -1        45-1.62006E-04 6.45389E-02 7.55680E-03
 -1        46-1.66603E-04 7.26247E-02 7.64898E-03
 -1        47-1.46416E-04 8.08305E-02 7.68800E-03
 -1        48-1.73535E-04 8.08305E-02 7.68800E-03
 -1        49-1.53349E-04 7.26247E-02 7.64898E-03
 -1        50-1.57946E-04 6.45389E-02 7.55680E-03
 -1        51-1.61007E-04 5.66657E-02 7.39481E-03
 -1        52-1.60731E-04 4.90303E-02 7.16350E-03
 -1        53-1.59666E-04 4.17218E-02 6.86233E-03
 -1        54-1.59644E-04 3.47978E-02 6.49266E-03
 -1        55-1.59859E-04 2.83228E-02 6.05212E-03
 -1        56-1.60597E-04 2.23662E-02 5.54203E-03
 -1        57-1.61584E-04 1.69797E-02 4.95934E-03
 -1        58-1.56592E-04 1.22428E-02 4.30849E-03
 -1        59-1.56582E-04 8.18754E-03 3.58028E-03
 -1        60-1.68120E-04 4.98052E-03 2.79795E-03
 -1        61-1.85447E-04 2.50116E-03 1.92446E-03
 -1        62-9.87552E-05 9.79049E-04 1.01390E-03
 -1        63-1.54052E-04 1.00425E-03-9.94368E-04
 -1        64-1.61539E-04 2.51418E-03-1.95002E-03
 -1        65-1.61841E-04 4.94591E-03-2.81374E-03
 -1        66-1.58439E-04 8.17642E-03-3.63148E-03
 -1        67-1.60120E-04 1.22070E-02-4.38519E-03
 -1        68-1.59672E-04 1.69286E-02-5.08417E-03
 -1        69-1.60117E-04 2.23013E-02-5.72291E-03
 -1        70-1.59939E-04 2.82467E-02-6.30506E-03
 -1        71-1.59801E-04 3.47090E-02-6.82861E-03
 -1        72-1.59634E-04 4.16213E-02-7.29397E-03
 -1        73-1.60673E-04 4.89196E-02-7.70127E-03
 -1        74-1.61069E-04 5.65463E-02-8.04861E-03
 -1        75-1.57965E-04 6.44126E-02-8.33403E-03
 -1        76-1.53555E-04 7.24931E-02-8.55656E-03
 -1        77-1.73137E-04 8.06962E-02-8.72857E-03
 -1        78-1.65900E-04 1.00425E-03-9.94368E-04
 -1        79-1.58413E-04 2.51418E-03-1.95002E-03
 -1        80-1.58110E-04 4.94591E-03-2.81374E-03
 -1        81-1.61513E-04 8.17642E-03-3.63148E-03
 -1        82-1.59832E-04 1.22070E-02-4.38519E-03
 -1        83-1.60280E-04 1.69286E-02-5.08417E-03
 -1        84-1.59834E-04 2.23013E-02-5.72291E-03
 -1        85-1.60013E-04 2.82467E-02-6.30506E-03
 -1        86-1.60150E-04 3.47090E-02-6.82861E-03
 -1        87-1.60318E-04 4.16213E-02-7.29397E-03
 -1        88-1.59278E-04 4.89196E-02-7.70127E-03
 -1        89-1.58883E-04 5.65463E-02-8.04861E-03
 -1        90-1.61987E-04 6.44126E-02-8.33403E-03
 -1        91-1.66397E-04 7.24931E-02-8.55656E-03
 -1        92-1.46814E-04 8.06962E-02-8.72857E-03
 -1        93-1.59976E-04 5.11198E-04 0.00000E+00
 -1        94-1.73439E-04 4.69383E-04 0.00000E+00
 -1        95-1.59976E-04 4.90168E-04 0.00000E+00
 -1        96-1.46512E-04 4.69383E-04 0.00000E+00
 -1        97-1.59976E-04 4.86096E-04 0.00000E+00
 -1        98-1.59976E-04 8.90528E-02 3.51825E-03
 -1        99-1.59845E-04 8.90151E-02-5.88487E-04
 -1       100-1.59976E-04 8.90019E-02-5.88458E-04
 -1       101-1.60106E-04 8.90151E-02-5.88487E-04
 -1       102-1.59976E-04 8.89850E-02-4.69535E-03
 -1       103-1.59976E-04 9.78918E-04 9.98035E-04
 -1       104-1.72513E-04 2.50920E-03 1.93259E-03
 -1       105-1.59976E-04 2.57709E-03 1.93418E-03
 -1       106-1.47439E-04 2.50920E-03 1.93259E-03
 -1       107-1.59976E-04 4.94513E-03 2.78990E-03
 -1       108-1.58356E-04 8.21320E-03 3.58386E-03
 -1       109-1.59976E-04 8.22351E-03 3.58990E-03
 -1       110-1.61595E-04 8.21320E-03 3.58386E-03
 -1       111-1.59976E-04 1.22411E-02 4.30724E-03
 -1       112-1.60709E-04 1.69813E-02 4.96043E-03
 -1       113-1.59976E-04 1.69864E-02 4.96063E-03
 -1       114-1.59243E-04 1.69813E-02 4.96043E-03
 -1       115-1.59976E-04 2.23634E-02 5.54125E-03
 -1       116-1.59940E-04 2.83243E-02 6.05239E-03
 -1       117-1.59976E-04 2.83253E-02 6.05301E-03
 -1       118-1.60011E-04 2.83243E-02 6.05239E-03
 -1       119-1.59976E-04 3.47979E-02 6.49262E-03
 -1       120-1.59825E-04 4.17221E-02 6.86261E-03
 -1       121-1.59976E-04 4.17217E-02 6.86264E-03
 -1       122-1.60127E-04 4.17221E-02 6.86261E-03
 -1       123-1.59976E-04 4.90302E-02 7.16312E-03
 -1       124-1.60471E-04 5.66610E-02 7.39485E-03
 -1       125-1.59976E-04 5.66604E-02 7.39530E-03
 -1       126-1.59481E-04 5.66610E-02 7.39485E-03
 -1       127-1.59976E-04 6.45442E-02 7.55655E-03
 -1       128-1.56746E-04 7.26286E-02 7.65115E-03
 -1       129-1.59976E-04 7.26170E-02 7.65262E-03
 -1       130-1.63206E-04 7.26286E-02 7.65115E-03
 -1       131-1.59976E-04 8.08278E-02 7.68309E-03
 -1       132-1.54606E-04 9.93249E-04-1.00917E-05
 -1       133-1.68349E-04 2.51489E-03 9.50385E-04
 -1       134-1.60433E-04 2.54569E-03 8.47509E-06
 -1       135-1.57391E-04 2.52852E-03-9.61848E-04
 -1       136-1.58836E-04 4.93633E-03-1.27339E-05
 -1       137-1.57464E-04 8.20123E-03 1.77420E-03
 -1       138-1.62035E-04 8.21050E-03-2.04463E-05
 -1       139-1.61019E-04 8.19391E-03-1.81796E-03
 -1       140-1.59389E-04 1.22223E-02-3.98894E-05
 -1       141-1.60403E-04 1.69693E-02 2.44069E-03
 -1       142-1.60329E-04 1.69603E-02-6.01464E-05
 -1       143-1.59850E-04 1.69444E-02-2.56415E-03
 -1       144-1.59980E-04 2.23312E-02-9.06627E-05
 -1       145-1.59885E-04 2.83049E-02 2.95521E-03
 -1       146-1.60066E-04 2.82870E-02-1.26076E-04
 -1       147-1.60002E-04 2.82669E-02-3.20745E-03
 -1       148-1.59955E-04 3.47536E-02-1.68067E-04
 -1       149-1.59941E-04 4.16963E-02 3.31542E-03
 -1       150-1.59970E-04 4.16708E-02-2.15604E-04
 -1       151-1.60018E-04 4.16463E-02-3.74692E-03
 -1       152-1.59985E-04 4.89756E-02-2.68888E-04
 -1       153-1.60487E-04 5.66307E-02 3.52521E-03
 -1       154-1.59952E-04 5.65973E-02-3.26736E-04
 -1       155-1.59473E-04 5.65713E-02-4.17886E-03
 -1       156-1.60010E-04 6.44831E-02-3.88722E-04
 -1       157-1.59141E-04 7.25882E-02 3.59284E-03
 -1       158-1.59961E-04 7.25469E-02-4.53482E-04
 -1       159-1.60888E-04 7.25226E-02-4.49996E-03
 -1       160-1.59903E-04 8.07678E-02-5.20517E-04
 -1       161-1.59976E-04 1.00154E-03-9.97913E-04