    1C
    1UModel: beam     Date: 10-Mar-1998                                 
    1UUSER                                                              
    1UDATE              02.december.2023                                
    1UTIME              14:57:21                                        
    1UHOST                                                              
    1UPGM               CalculiX                                        
    1UVERSION           Version DEVELOPMENT                             
    1UCOMPILETIME       Sat Dec  2 14:42:26 CET 2023                    
    1UDIR                                                               
    1UDBN                                                               
    1UMAT    1EL                                                        
    2C                            81                                     1
 -1         1 0.00000E+00 0.00000E+00 0.00000E+00
 -1         2 1.00000E+00 0.00000E+00 0.00000E+00
 -1         3 1.00000E+00 1.50000E+00 0.00000E+00
 -1         4 0.00000E+00 1.50000E+00 0.00000E+00
 -1         5 0.00000E+00 0.00000E+00 8.00000E+00
 -1         6 1.00000E+00 0.00000E+00 8.00000E+00
 -1         7 1.00000E+00 1.50000E+00 8.00000E+00
 -1         8 0.00000E+00 1.50000E+00 8.00000E+00
 -1        10 5.00000E-01 0.00000E+00 0.00000E+00
 -1        13 1.00000E+00 7.50000E-01 0.00000E+00
 -1        16 5.00000E-01 1.50000E+00 0.00000E+00
 -1        19 0.00000E+00 7.50000E-01 0.00000E+00
 -1        22 5.00000E-01 0.00000E+00 8.00000E+00
 -1        25 1.00000E+00 7.50000E-01 8.00000E+00
 -1        28 5.00000E-01 1.50000E+00 8.00000E+00
 -1        31 0.00000E+00 7.50000E-01 8.00000E+00
 -1        34 1.00000E+00 0.00000E+00 1.00000E+00
 -1        36 1.00000E+00 0.00000E+00 2.00000E+00
 -1        38 1.00000E+00 0.00000E+00 3.00000E+00
 -1        40 1.00000E+00 0.00000E+00 4.00000E+00
 -1        42 1.00000E+00 0.00000E+00 5.00000E+00
 -1        44 1.00000E+00 0.00000E+00 6.00000E+00
 -1        46 1.00000E+00 0.00000E+00 7.00000E+00
 -1        49 0.00000E+00 0.00000E+00 7.00000E+00
 -1        51 0.00000E+00 0.00000E+00 6.00000E+00
 -1        53 0.00000E+00 0.00000E+00 5.00000E+00
 -1        55 0.00000E+00 0.00000E+00 4.00000E+00
 -1        57 0.00000E+00 0.00000E+00 3.00000E+00
 -1        59 0.00000E+00 0.00000E+00 2.00000E+00
 -1        61 0.00000E+00 0.00000E+00 1.00000E+00
 -1        64 1.00000E+00 1.50000E+00 1.00000E+00
 -1        66 1.00000E+00 1.50000E+00 2.00000E+00
 -1        68 1.00000E+00 1.50000E+00 3.00000E+00
 -1        70 1.00000E+00 1.50000E+00 4.00000E+00
 -1        72 1.00000E+00 1.50000E+00 5.00000E+00
 -1        74 1.00000E+00 1.50000E+00 6.00000E+00
 -1        76 1.00000E+00 1.50000E+00 7.00000E+00
 -1        79 0.00000E+00 1.50000E+00 1.00000E+00
 -1        81 0.00000E+00 1.50000E+00 2.00000E+00
 -1        83 0.00000E+00 1.50000E+00 3.00000E+00
 -1        85 0.00000E+00 1.50000E+00 4.00000E+00
 -1        87 0.00000E+00 1.50000E+00 5.00000E+00
 -1        89 0.00000E+00 1.50000E+00 6.00000E+00
 -1        91 0.00000E+00 1.50000E+00 7.00000E+00
 -1        95 5.00000E-01 7.50000E-01 0.00000E+00
 -1       100 5.00000E-01 7.50000E-01 8.00000E+00
 -1       105 5.00000E-01 0.00000E+00 1.00000E+00
 -1       109 5.00000E-01 0.00000E+00 2.00000E+00
 -1       113 5.00000E-01 0.00000E+00 3.00000E+00
 -1       117 5.00000E-01 0.00000E+00 4.00000E+00
 -1       121 5.00000E-01 0.00000E+00 5.00000E+00
 -1       125 5.00000E-01 0.00000E+00 6.00000E+00
 -1       129 5.00000E-01 0.00000E+00 7.00000E+00
 -1       134 1.00000E+00 7.50000E-01 1.00000E+00
 -1       138 1.00000E+00 7.50000E-01 2.00000E+00
 -1       142 1.00000E+00 7.50000E-01 3.00000E+00
 -1       146 1.00000E+00 7.50000E-01 4.00000E+00
 -1       150 1.00000E+00 7.50000E-01 5.00000E+00
 -1       154 1.00000E+00 7.50000E-01 6.00000E+00
 -1       158 1.00000E+00 7.50000E-01 7.00000E+00
 -1       163 5.00000E-01 1.50000E+00 1.00000E+00
 -1       167 5.00000E-01 1.50000E+00 2.00000E+00
 -1       171 5.00000E-01 1.50000E+00 3.00000E+00
 -1       175 5.00000E-01 1.50000E+00 4.00000E+00
 -1       179 5.00000E-01 1.50000E+00 5.00000E+00
 -1       183 5.00000E-01 1.50000E+00 6.00000E+00
 -1       187 5.00000E-01 1.50000E+00 7.00000E+00
 -1       192 0.00000E+00 7.50000E-01 1.00000E+00
 -1       196 0.00000E+00 7.50000E-01 2.00000E+00
 -1       200 0.00000E+00 7.50000E-01 3.00000E+00
 -1       204 0.00000E+00 7.50000E-01 4.00000E+00
 -1       208 0.00000E+00 7.50000E-01 5.00000E+00
 -1       212 0.00000E+00 7.50000E-01 6.00000E+00
 -1       216 0.00000E+00 7.50000E-01 7.00000E+00
 -1       222 5.00000E-01 7.50000E-01 1.00000E+00
 -1       228 5.00000E-01 7.50000E-01 2.00000E+00
 -1       234 5.00000E-01 7.50000E-01 3.00000E+00
 -1       240 5.00000E-01 7.50000E-01 4.00000E+00
 -1       246 5.00000E-01 7.50000E-01 5.00000E+00
 -1       252 5.00000E-01 7.50000E-01 6.00000E+00
 -1       258 5.00000E-01 7.50000E-01 7.00000E+00
 -3
    3C                            32                                     1
 -1         1    1    0    1
 -2         1        10        95        19        61       105       222       192
 -1         2    1    0    1
 -2        10         2        13        95       105        34       134       222
 -1         3    1    0    1
 -2        19        95        16         4       192       222       163        79
 -1         4    1    0    1
 -2        95        13         3        16       222       134        64       163
 -1         5    1    0    1
 -2        61       105       222       192        59       109       228       196
 -1         6    1    0    1
 -2       105        34       134       222       109        36       138       228
 -1         7    1    0    1
 -2       192       222       163        79       196       228       167        81
 -1         8    1    0    1
 -2       222       134        64       163       228       138        66       167
 -1         9    1    0    1
 -2        59       109       228       196        57       113       234       200
 -1        10    1    0    1
 -2       109        36       138       228       113        38       142       234
 -1        11    1    0    1
 -2       196       228       167        81       200       234       171        83
 -1        12    1    0    1
 -2       228       138        66       167       234       142        68       171
 -1        13    1    0    1
 -2        57       113       234       200        55       117       240       204
 -1        14    1    0    1
 -2       113        38       142       234       117        40       146       240
 -1        15    1    0    1
 -2       200       234       171        83       204       240       175        85
 -1        16    1    0    1
 -2       234       142        68       171       240       146        70       175
 -1        17    1    0    1
 -2        55       117       240       204        53       121       246       208
 -1        18    1    0    1
 -2       117        40       146       240       121        42       150       246
 -1        19    1    0    1
 -2       204       240       175        85       208       246       179        87
 -1        20    1    0    1
 -2       240       146        70       175       246       150        72       179
 -1        21    1    0    1
 -2        53       121       246       208        51       125       252       212
 -1        22    1    0    1
 -2       121        42       150       246       125        44       154       252
 -1        23    1    0    1
 -2       208       246       179        87       212       252       183        89
 -1        24    1    0    1
 -2       246       150        72       179       252       154        74       183
 -1        25    1    0    1
 -2        51       125       252       212        49       129       258       216
 -1        26    1    0    1
 -2       125        44       154       252       129        46       158       258
 -1        27    1    0    1
 -2       212       252       183        89       216       258       187        91
 -1        28    1    0    1
 -2       252       154        74       183       258       158        76       187
 -1        29    1    0    1
 -2        49       129       258       216         5        22       100        31
 -1        30    1    0    1
 -2       129        46       158       258        22         6        25       100
 -1        31    1    0    1
 -2       216       258       187        91        31       100        28         8
 -1        32    1    0    1
 -2       258       158        76       187       100        25         7        28
 -3
    1PSTEP                         1           1           1          
  100CL  101 4.40952E-08           1                     1    1           1
 -4  ENER        1    1
 -5  ENER        1    1    0    0
 -1       100 8.06143E-05
 -3
    1PSTEP                         2           2           1          
  100CL  102 8.81904E-08           1                     1    2           1
 -4  ENER        1    1
 -5  ENER        1    1    0    0
 -1       100 1.08182E-03
 -3
    1PSTEP                         3           3           1          
  100CL  103 1.32286E-07           1                     1    3           1
 -4  ENER        1    1
 -5  ENER        1    1    0    0
 -1       100 3.49552E-03
 -3
    1PSTEP                         4           4           1          
  100CL  104 1.76381E-07           1                     1    4           1
 -4  ENER        1    1
 -5  ENER        1    1    0    0
 -1       100 5.84566E-03
 -3
    1PSTEP                         5           5           1          
  100CL  105 2.20476E-07           1                     1    5           1
 -4  ENER        1    1
 -5  ENER        1    1    0    0
 -1       100 7.01657E-03
 -3
    1PSTEP                         6           6           1          
  100CL  106 2.64571E-07           1                     1    6           1
 -4  ENER        1    1
 -5  ENER        1    1    0    0
 -1       100 8.03258E-03
 -3
    1PSTEP                         7           7           1          
  100CL  107 3.08666E-07           1                     1    7           1
 -4  ENER        1    1
 -5  ENER        1    1    0    0
 -1       100 1.08383E-02
 -3
    1PSTEP                         8           8           1          
  100CL  108 3.52762E-07           1                     1    8           1
 -4  ENER        1    1
 -5  ENER        1    1    0    0
 -1       100 1.54082E-02
 -3
    1PSTEP                         9           9           1          
  100CL  109 3.96857E-07           1                     1    9           1
 -4  ENER        1    1
 -5  ENER        1    1    0    0
 -1       100 1.96675E-02
 -3
    1PSTEP                        10          10           1          
  100CL  110 4.40952E-07           1                     1   10           1
 -4  ENER        1    1
 -5  ENER        1    1    0    0
 -1       100 2.22898E-02
 -3
    1PSTEP                        11          11           1          
  100CL  111 4.85047E-07           1                     1   11           1
 -4  ENER        1    1
 -5  ENER        1    1    0    0
 -1       100 2.41589E-02
 -3
    1PSTEP                        12          12           1          
  100CL  112 5.29143E-07           1                     1   12           1
 -4  ENER        1    1
 -5  ENER        1    1    0    0
 -1       100 2.69832E-02
 -3
    1PSTEP                        13          13           1          
  100CL  113 5.73238E-07           1                     1   13           1
 -4  ENER        1    1
 -5  ENER        1    1    0    0
 -1       100 3.18522E-02
 -3
    1PSTEP                        14          14           1          
  100CL  114 6.17333E-07           1                     1   14           1
 -4  ENER        1    1
 -5  ENER        1    1    0    0
 -1       100 3.92690E-02
 -3
    1PSTEP                        15          15           1          
  100CL  115 6.61428E-07           1                     1   15           1
 -4  ENER        1    1
 -5  ENER        1    1    0    0
 -1       100 4.90205E-02
 -3
    1PSTEP                        16          16           1          
  100CL  116 7.05523E-07           1                     1   16           1
 -4  ENER        1    1
 -5  ENER        1    1    0    0
 -1       100 5.94187E-02
 -3
    1PSTEP                        17          17           1          
  100CL  117 7.49619E-07           1                     1   17           1
 -4  ENER        1    1
 -5  ENER        1    1    0    0
 -1       100 6.79580E-02
 -3
    1PSTEP                        18          18           1          
  100CL  118 7.93714E-07           1                     1   18           1
 -4  ENER        1    1
 -5  ENER        1    1    0    0
 -1       100 7.36212E-02
 -3
    1PSTEP                        19          19           1          
  100CL  119 8.37809E-07           1                     1   19           1
 -4  ENER        1    1
 -5  ENER        1    1    0    0
 -1       100 7.79202E-02
 -3
    1PSTEP                        20          20           1          
  100CL  120 8.81904E-07           1                     1   20           1
 -4  ENER        1    1
 -5  ENER        1    1    0    0
 -1       100 8.32692E-02
 -3
    1PSTEP                        21          21           1          
  100CL  121 9.25999E-07           1                     1   21           1
 -4  ENER        1    1
 -5  ENER        1    1    0    0
 -1       100 9.10451E-02
 -3
    1PSTEP                        22          22           1          
  100CL  122 9.70095E-07           1                     1   22           1
 -4  ENER        1    1
 -5  ENER        1    1    0    0
 -1       100 1.01382E-01
 -3
    1PSTEP                        23          23           1          
  100CL  123 1.01419E-06           1                     1   23           1
 -4  ENER        1    1
 -5  ENER        1    1    0    0
 -1       100 1.13634E-01
 -3
    1PSTEP                        24          24           1          
  100CL  124 1.05829E-06           1                     1   24           1
 -4  ENER        1    1
 -5  ENER        1    1    0    0
 -1       100 1.26285E-01
 -3
    1PSTEP                        25          25           1          
  100CL  125 1.10238E-06           1                     1   25           1
 -4  ENER        1    1
 -5  ENER        1    1    0    0
 -1       100 1.37317E-01
 -3
    1PSTEP                        26          26           1          
  100CL  126 1.14648E-06           1                     1   26           1
 -4  ENER        1    1
 -5  ENER        1    1    0    0
 -1       100 1.45722E-01
 -3
    1PSTEP                        27          27           1          
  100CL  127 1.19057E-06           1                     1   27           1
 -4  ENER        1    1
 -5  ENER        1    1    0    0
 -1       100 1.52476E-01
 -3
    1PSTEP                        28          28           1          
  100CL  128 1.23467E-06           1                     1   28           1
 -4  ENER        1    1
 -5  ENER        1    1    0    0
 -1       100 1.59635E-01
 -3
    1PSTEP                        29          29           1          
  100CL  129 1.27876E-06           1                     1   29           1
 -4  ENER        1    1
 -5  ENER        1    1    0    0
 -1       100 1.68797E-01
 -3
    1PSTEP                        30          30           1          
  100CL  130 1.32286E-06           1                     1   30           1
 -4  ENER        1    1
 -5  ENER        1    1    0    0
 -1       100 1.80482E-01
 -3
    1PSTEP                        31          31           1          
  100CL  131 1.36695E-06           1                     1   31           1
 -4  ENER        1    1
 -5  ENER        1    1    0    0
 -1       100 1.94094E-01
 -3
    1PSTEP                        32          32           1          
  100CL  132 1.41105E-06           1                     1   32           1
 -4  ENER        1    1
 -5  ENER        1    1    0    0
 -1       100 2.07893E-01
 -3
    1PSTEP                        33          33           1          
  100CL  133 1.45514E-06           1                     1   33           1
 -4  ENER        1    1
 -5  ENER        1    1    0    0
 -1       100 2.19750E-01
 -3
    1PSTEP                        34          34           1          
  100CL  134 1.49924E-06           1                     1   34           1
 -4  ENER        1    1
 -5  ENER        1    1    0    0
 -1       100 2.28780E-01
 -3
    1PSTEP                        35          35           1          
  100CL  135 1.54333E-06           1                     1   35           1
 -4  ENER        1    1
 -5  ENER        1    1    0    0
 -1       100 2.36128E-01
 -3
    1PSTEP                        36          36           1          
  100CL  136 1.58743E-06           1                     1   36           1
 -4  ENER        1    1
 -5  ENER        1    1    0    0
 -1       100 2.43823E-01
 -3
    1PSTEP                        37          37           1          
  100CL  137 1.63152E-06           1                     1   37           1
 -4  ENER        1    1
 -5  ENER        1    1    0    0
 -1       100 2.53195E-01
 -3
    1PSTEP                        38          38           1          
  100CL  138 1.67562E-06           1                     1   38           1
 -4  ENER        1    1
 -5  ENER        1    1    0    0
 -1       100 2.64493E-01
 -3
    1PSTEP                        39          39           1          
  100CL  139 1.71971E-06           1                     1   39           1
 -4  ENER        1    1
 -5  ENER        1    1    0    0
 -1       100 2.77186E-01
 -3
    1PSTEP                        40          40           1          
  100CL  140 1.76381E-06           1                     1   40           1
 -4  ENER        1    1
 -5  ENER        1    1    0    0
 -1       100 2.90036E-01
 -3
    1PSTEP                        41          41           1          
  100CL  141 1.80790E-06           1                     1   41           1
 -4  ENER        1    1
 -5  ENER        1    1    0    0
 -1       100 3.01505E-01
 -3
    1PSTEP                        42          42           1          
  100CL  142 1.85200E-06           1                     1   42           1
 -4  ENER        1    1
 -5  ENER        1    1    0    0
 -1       100 3.10921E-01
 -3
    1PSTEP                        43          43           1          
  100CL  143 1.89609E-06           1                     1   43           1
 -4  ENER        1    1
 -5  ENER        1    1    0    0
 -1       100 3.19115E-01
 -3
    1PSTEP                        44          44           1          
  100CL  144 1.94019E-06           1                     1   44           1
 -4  ENER        1    1
 -5  ENER        1    1    0    0
 -1       100 3.27557E-01
 -3
    1PSTEP                        45          45           1          
  100CL  145 1.98428E-06           1                     1   45           1
 -4  ENER        1    1
 -5  ENER        1    1    0    0
 -1       100 3.37156E-01
 -3
    1PSTEP                        46          46           1          
  100CL  146 2.02838E-06           1                     1   46           1
 -4  ENER        1    1
 -5  ENER        1    1    0    0
 -1       100 3.48083E-01
 -3
    1PSTEP                        47          47           1          
  100CL  147 2.07247E-06           1                     1   47           1
 -4  ENER        1    1
 -5  ENER        1    1    0    0
 -1       100 3.60116E-01
 -3
    1PSTEP                        48          48           1          
  100CL  148 2.11657E-06           1                     1   48           1
 -4  ENER        1    1
 -5  ENER        1    1    0    0
 -1       100 3.72542E-01
 -3
    1PSTEP                        49          49           1          
  100CL  149 2.16067E-06           1                     1   49           1
 -4  ENER        1    1
 -5  ENER        1    1    0    0
 -1       100 3.84195E-01
 -3
    1PSTEP                        50          50           1          
  100CL  150 2.20476E-06           1                     1   50           1
 -4  ENER        1    1
 -5  ENER        1    1    0    0
 -1       100 3.94321E-01
 -3
    1PSTEP                        51          51           1          
  100CL  151 2.24886E-06           1                     1   51           1
 -4  ENER        1    1
 -5  ENER        1    1    0    0
 -1       100 4.03353E-01
 -3
    1PSTEP                        52          52           1          
  100CL  152 2.29295E-06           1                     1   52           1
 -4  ENER        1    1
 -5  ENER        1    1    0    0
 -1       100 4.12460E-01
 -3
    1PSTEP                        53          53           1          
  100CL  153 2.33705E-06           1                     1   53           1
 -4  ENER        1    1
 -5  ENER        1    1    0    0
 -1       100 4.22521E-01
 -3
    1PSTEP                        54          54           1          
  100CL  154 2.38114E-06           1                     1   54           1
 -4  ENER        1    1
 -5  ENER        1    1    0    0
 -1       100 4.33768E-01
 -3
    1PSTEP                        55          55           1          
  100CL  155 2.42524E-06           1                     1   55           1
 -4  ENER        1    1
 -5  ENER        1    1    0    0
 -1       100 4.45964E-01
 -3
    1PSTEP                        56          56           1          
  100CL  156 2.46933E-06           1                     1   56           1
 -4  ENER        1    1
 -5  ENER        1    1    0    0
 -1       100 4.58423E-01
 -3
    1PSTEP                        57          57           1          
  100CL  157 2.51343E-06           1                     1   57           1
 -4  ENER        1    1
 -5  ENER        1    1    0    0
 -1       100 4.70131E-01
 -3
    1PSTEP                        58          58           1          
  100CL  158 2.55752E-06           1                     1   58           1
 -4  ENER        1    1
 -5  ENER        1    1    0    0
 -1       100 4.80431E-01
 -3
    1PSTEP                        59          59           1          
  100CL  159 2.60162E-06           1                     1   59           1
 -4  ENER        1    1
 -5  ENER        1    1    0    0
 -1       100 4.89615E-01
 -3
    1PSTEP                        60          60           1          
  100CL  160 2.64571E-06           1                     1   60           1
 -4  ENER        1    1
 -5  ENER        1    1    0    0
 -1       100 4.98599E-01
 -3
    1PSTEP                        61          61           1          
  100CL  161 2.68981E-06           1                     1   61           1
 -4  ENER        1    1
 -5  ENER        1    1    0    0
 -1       100 5.08180E-01
 -3
    1PSTEP                        62          62           1          
  100CL  162 2.73390E-06           1                     1   62           1
 -4  ENER        1    1
 -5  ENER        1    1    0    0
 -1       100 5.18696E-01
 -3
    1PSTEP                        63          63           1          
  100CL  163 2.77800E-06           1                     1   63           1
 -4  ENER        1    1
 -5  ENER        1    1    0    0
 -1       100 5.29989E-01
 -3
    1PSTEP                        64          64           1          
  100CL  164 2.82209E-06           1                     1   64           1
 -4  ENER        1    1
 -5  ENER        1    1    0    0
 -1       100 5.41328E-01
 -3
    1PSTEP                        65          65           1          
  100CL  165 2.86619E-06           1                     1   65           1
 -4  ENER        1    1
 -5  ENER        1    1    0    0
 -1       100 5.51679E-01
 -3
    1PSTEP                        66          66           1          
  100CL  166 2.91028E-06           1                     1   66           1
 -4  ENER        1    1
 -5  ENER        1    1    0    0
 -1       100 5.60554E-01
 -3
    1PSTEP                        67          67           1          
  100CL  167 2.95438E-06           1                     1   67           1
 -4  ENER        1    1
 -5  ENER        1    1    0    0
 -1       100 5.68491E-01
 -3
    1PSTEP                        68          68           1          
  100CL  168 2.99847E-06           1                     1   68           1
 -4  ENER        1    1
 -5  ENER        1    1    0    0
 -1       100 5.76475E-01
 -3
    1PSTEP                        69          69           1          
  100CL  169 3.04257E-06           1                     1   69           1
 -4  ENER        1    1
 -5  ENER        1    1    0    0
 -1       100 5.85083E-01
 -3
    1PSTEP                        70          70           1          
  100CL  170 3.08666E-06           1                     1   70           1
 -4  ENER        1    1
 -5  ENER        1    1    0    0
 -1       100 5.94363E-01
 -3
    1PSTEP                        71          71           1          
  100CL  171 3.13076E-06           1                     1   71           1
 -4  ENER        1    1
 -5  ENER        1    1    0    0
 -1       100 6.04141E-01
 -3
    1PSTEP                        72          72           1          
  100CL  172 3.17486E-06           1                     1   72           1
 -4  ENER        1    1
 -5  ENER        1    1    0    0
 -1       100 6.14048E-01
 -3
    1PSTEP                        73          73           1          
  100CL  173 3.21895E-06           1                     1   73           1
 -4  ENER        1    1
 -5  ENER        1    1    0    0
 -1       100 6.23539E-01
 -3
    1PSTEP                        74          74           1          
  100CL  174 3.26305E-06           1                     1   74           1
 -4  ENER        1    1
 -5  ENER        1    1    0    0
 -1       100 6.32331E-01
 -3
    1PSTEP                        75          75           1          
  100CL  175 3.30714E-06           1                     1   75           1
 -4  ENER        1    1
 -5  ENER        1    1    0    0
 -1       100 6.40723E-01
 -3
    1PSTEP                        76          76           1          
  100CL  176 3.35124E-06           1                     1   76           1
 -4  ENER        1    1
 -5  ENER        1    1    0    0
 -1       100 6.49245E-01
 -3
    1PSTEP                        77          77           1          
  100CL  177 3.39533E-06           1                     1   77           1
 -4  ENER        1    1
 -5  ENER        1    1    0    0
 -1       100 6.58148E-01
 -3
    1PSTEP                        78          78           1          
  100CL  178 3.43943E-06           1                     1   78           1
 -4  ENER        1    1
 -5  ENER        1    1    0    0
 -1       100 6.67447E-01
 -3
    1PSTEP                        79          79           1          
  100CL  179 3.48352E-06           1                     1   79           1
 -4  ENER        1    1
 -5  ENER        1    1    0    0
 -1       100 6.77140E-01
 -3
    1PSTEP                        80          80           1          
  100CL  180 3.52762E-06           1                     1   80           1
 -4  ENER        1    1
 -5  ENER        1    1    0    0
 -1       100 6.87041E-01
 -3
    1PSTEP                        81          81           1          
  100CL  181 3.57171E-06           1                     1   81           1
 -4  ENER        1    1
 -5  ENER        1    1    0    0
 -1       100 6.96629E-01
 -3
    1PSTEP                        82          82           1          
  100CL  182 3.61581E-06           1                     1   82           1
 -4  ENER        1    1
 -5  ENER        1    1    0    0
 -1       100 7.05449E-01
 -3
    1PSTEP                        83          83           1          
  100CL  183 3.65990E-06           1                     1   83           1
 -4  ENER        1    1
 -5  ENER        1    1    0    0
 -1       100 7.13598E-01
 -3
    1PSTEP                        84          84           1          
  100CL  184 3.70400E-06           1                     1   84           1
 -4  ENER        1    1
 -5  ENER        1    1    0    0
 -1       100 7.21568E-01
 -3
    1PSTEP                        85          85           1          
  100CL  185 3.74809E-06           1                     1   85           1
 -4  ENER        1    1
 -5  ENER        1    1    0    0
 -1       100 7.29761E-01
 -3
    1PSTEP                        86          86           1          
  100CL  186 3.79219E-06           1                     1   86           1
 -4  ENER        1    1
 -5  ENER        1    1    0    0
 -1       100 7.38305E-01
 -3
    1PSTEP                        87          87           1          
  100CL  187 3.83628E-06           1                     1   87           1
 -4  ENER        1    1
 -5  ENER        1    1    0    0
 -1       100 7.47119E-01
 -3
    1PSTEP                        88          88           1          
  100CL  188 3.88038E-06           1                     1   88           1
 -4  ENER        1    1
 -5  ENER        1    1    0    0
 -1       100 7.55865E-01
 -3
    1PSTEP                        89          89           1          
  100CL  189 3.92447E-06           1                     1   89           1
 -4  ENER        1    1
 -5  ENER        1    1    0    0
 -1       100 7.64003E-01
 -3
    1PSTEP                        90          90           1          
  100CL  190 3.96857E-06           1                     1   90           1
 -4  ENER        1    1
 -5  ENER        1    1    0    0
 -1       100 7.71230E-01
 -3
    1PSTEP                        91          91           1          
  100CL  191 4.01266E-06           1                     1   91           1
 -4  ENER        1    1
 -5  ENER        1    1    0    0