
                        S T E P       1


                                INCREMENT     1


 displacements (vx,vy,vz) for set NALL and time  0.1000000E+01

         1  0.000000E+00  0.000000E+00  0.000000E+00
         2  0.000000E+00  0.000000E+00  0.000000E+00
         3  0.000000E+00  0.000000E+00  0.000000E+00
         4  0.000000E+00  0.000000E+00  0.000000E+00
         5 -3.008272E-05  7.207111E-02  7.026613E-03
         6  3.008272E-05  7.207111E-02  7.026613E-03
         7 -3.008272E-05  7.207111E-02 -7.026613E-03
         8  3.008272E-05  7.207111E-02 -7.026613E-03
         9  0.000000E+00  0.000000E+00  0.000000E+00
        10  0.000000E+00  0.000000E+00  0.000000E+00
        11  0.000000E+00  0.000000E+00  0.000000E+00
        12  0.000000E+00  0.000000E+00  0.000000E+00
        13  0.000000E+00  0.000000E+00  0.000000E+00
        14  0.000000E+00  0.000000E+00  0.000000E+00
        15  0.000000E+00  0.000000E+00  0.000000E+00
        16  0.000000E+00  0.000000E+00  0.000000E+00
        17  0.000000E+00  0.000000E+00  0.000000E+00
        18  0.000000E+00  0.000000E+00  0.000000E+00
        19  0.000000E+00  0.000000E+00  0.000000E+00
        20  0.000000E+00  0.000000E+00  0.000000E+00
        21 -1.325102E-05  7.200800E-02  7.018938E-03
        22 -6.588583E-14  7.199964E-02  7.007479E-03
        23  1.325102E-05  7.200800E-02  7.018938E-03
        24 -1.981792E-07  7.201506E-02  3.493205E-03
        25 -6.889910E-14  7.197918E-02  6.241265E-15
        26  1.981791E-07  7.201506E-02 -3.493205E-03
        27 -1.325102E-05  7.200800E-02 -7.018938E-03
        28 -7.193097E-14  7.199964E-02 -7.007479E-03
        29  1.325102E-05  7.200800E-02 -7.018938E-03
        30 -1.981792E-07  7.201506E-02 -3.493205E-03
        31 -6.894540E-14  7.197918E-02 -6.031360E-15
        32  1.981791E-07  7.201506E-02  3.493205E-03
        33 -1.288478E-04  3.145878E-04  4.969017E-04
        34 -1.277909E-04  1.064584E-03  1.002777E-03
        35 -1.831999E-04  2.534703E-03  1.818723E-03
        36 -1.517447E-04  4.756504E-03  2.591836E-03
        37 -1.497781E-04  7.762380E-03  3.304686E-03
        38 -1.331310E-04  1.142701E-02  3.958051E-03
        39 -1.219340E-04  1.572682E-02  4.547115E-03
        40 -1.077281E-04  2.057666E-02  5.075132E-03
        41 -9.478247E-05  2.592716E-02  5.540150E-03
        42 -8.143003E-05  3.171074E-02  5.944034E-03
        43 -6.699868E-05  3.786704E-02  6.285508E-03
        44 -5.299773E-05  4.433903E-02  6.566401E-03
        45 -4.210752E-05  5.104473E-02  6.780933E-03
        46 -3.013883E-05  5.795162E-02  6.933556E-03
        47  5.092939E-06  6.495501E-02  6.991006E-03
        48 -5.092939E-06  6.495501E-02  6.991006E-03
        49  3.013883E-05  5.795162E-02  6.933556E-03
        50  4.210752E-05  5.104473E-02  6.780933E-03
        51  5.299773E-05  4.433903E-02  6.566401E-03
        52  6.699868E-05  3.786704E-02  6.285508E-03
        53  8.143003E-05  3.171074E-02  5.944034E-03
        54  9.478247E-05  2.592716E-02  5.540150E-03
        55  1.077281E-04  2.057666E-02  5.075132E-03
        56  1.219340E-04  1.572682E-02  4.547115E-03
        57  1.331310E-04  1.142701E-02  3.958051E-03
        58  1.497781E-04  7.762380E-03  3.304686E-03
        59  1.517447E-04  4.756504E-03  2.591836E-03
        60  1.831999E-04  2.534703E-03  1.818723E-03
        61  1.277909E-04  1.064584E-03  1.002777E-03
        62  1.288478E-04  3.145878E-04  4.969017E-04
        63  1.288478E-04  3.145878E-04 -4.969017E-04
        64  1.277909E-04  1.064584E-03 -1.002777E-03
        65  1.831999E-04  2.534703E-03 -1.818723E-03
        66  1.517447E-04  4.756504E-03 -2.591836E-03
        67  1.497781E-04  7.762380E-03 -3.304686E-03
        68  1.331310E-04  1.142701E-02 -3.958051E-03
        69  1.219340E-04  1.572682E-02 -4.547115E-03
        70  1.077281E-04  2.057666E-02 -5.075132E-03
        71  9.478247E-05  2.592716E-02 -5.540150E-03
        72  8.143003E-05  3.171074E-02 -5.944034E-03
        73  6.699868E-05  3.786704E-02 -6.285508E-03
        74  5.299773E-05  4.433903E-02 -6.566401E-03
        75  4.210752E-05  5.104473E-02 -6.780933E-03
        76  3.013883E-05  5.795162E-02 -6.933556E-03
        77 -5.092939E-06  6.495501E-02 -6.991006E-03
        78 -1.288478E-04  3.145878E-04 -4.969017E-04
        79 -1.277909E-04  1.064584E-03 -1.002777E-03
        80 -1.831999E-04  2.534703E-03 -1.818723E-03
        81 -1.517447E-04  4.756504E-03 -2.591836E-03
        82 -1.497781E-04  7.762380E-03 -3.304686E-03
        83 -1.331310E-04  1.142701E-02 -3.958051E-03
        84 -1.219340E-04  1.572682E-02 -4.547115E-03
        85 -1.077281E-04  2.057666E-02 -5.075132E-03
        86 -9.478247E-05  2.592716E-02 -5.540150E-03
        87 -8.143003E-05  3.171074E-02 -5.944034E-03
        88 -6.699868E-05  3.786704E-02 -6.285508E-03
        89 -5.299773E-05  4.433903E-02 -6.566401E-03
        90 -4.210752E-05  5.104473E-02 -6.780933E-03
        91 -3.013883E-05  5.795162E-02 -6.933556E-03
        92  5.092939E-06  6.495501E-02 -6.991006E-03
        93  0.000000E+00  0.000000E+00  0.000000E+00
        94  0.000000E+00  0.000000E+00  0.000000E+00
        95  0.000000E+00  0.000000E+00  0.000000E+00
        96  0.000000E+00  0.000000E+00  0.000000E+00
        97  0.000000E+00  0.000000E+00  0.000000E+00
        98 -6.739063E-14  7.198239E-02  3.495263E-03
        99 -6.888286E-14  7.197652E-02 -2.985332E-15
       100 -6.886017E-14  7.196725E-02  8.428385E-17
       101 -6.888037E-14  7.197652E-02  3.164440E-15
       102 -7.039769E-14  7.198239E-02 -3.495263E-03
       103 -5.553164E-18  3.707042E-04  4.834392E-04
       104  6.334089E-05  1.123934E-03  9.959910E-04
       105 -6.431352E-16  1.138690E-03  1.002448E-03
       106 -6.334089E-05  1.123934E-03  9.959910E-04
       107 -1.928813E-15  2.621206E-03  1.815707E-03
       108  7.596197E-05  4.818175E-03  2.599090E-03
       109 -4.129814E-15  4.839002E-03  2.599576E-03
       110 -7.596197E-05  4.818175E-03  2.599090E-03
       111 -7.056299E-15  7.835191E-03  3.305628E-03
       112  6.649299E-05  1.147833E-02  3.961679E-03
       113 -1.066421E-14  1.149600E-02  3.963027E-03
       114 -6.649299E-05  1.147833E-02  3.961679E-03
       115 -1.482851E-14  1.578728E-02  4.549779E-03
       116  5.388036E-05  2.061723E-02  5.078464E-03
       117 -1.950176E-14  2.063093E-02  5.078224E-03
       118 -5.388036E-05  2.061723E-02  5.078464E-03
       119 -2.457301E-14  2.597470E-02  5.543042E-03
       120  4.067797E-05  3.174122E-02  5.947223E-03
       121 -3.003417E-14  3.175061E-02  5.946882E-03
       122 -4.067797E-05  3.174122E-02  5.947223E-03
       123 -3.573408E-14  3.790116E-02  6.288489E-03
       124  2.662273E-05  4.435535E-02  6.568970E-03
       125 -4.158953E-14  4.436137E-02  6.568803E-03
       126 -2.662273E-05  4.435535E-02  6.568970E-03
       127 -4.756959E-14  5.106908E-02  6.784127E-03
       128  1.456072E-05  5.796380E-02  6.938977E-03
       129 -5.353877E-14  5.795725E-02  6.938879E-03
       130 -1.456072E-05  5.796380E-02  6.938977E-03
       131 -5.968556E-14  6.495634E-02  6.991423E-03
       132 -3.934037E-16  1.923931E-04  5.201671E-16
       133 -6.402934E-05  9.921056E-04  4.938028E-04
       134 -1.228767E-15  9.893144E-04  1.086262E-15
       135  6.402934E-05  9.921056E-04 -4.938028E-04
       136 -2.827355E-15  2.394404E-03  1.948792E-15
       137 -7.603202E-05  4.682417E-03  1.290166E-03
       138 -5.189910E-15  4.664555E-03  2.750187E-15
       139  7.603202E-05  4.682417E-03 -1.290166E-03
       140 -8.351992E-15  7.651280E-03  3.464487E-15
       141 -6.652479E-05  1.135965E-02  1.972674E-03
       142 -1.214905E-14  1.134028E-02  4.092269E-15
       143  6.652479E-05  1.135965E-02 -1.972674E-03
       144 -1.654029E-14  1.563864E-02  4.621091E-15
       145 -5.392364E-05  2.052066E-02  2.531288E-03
       146 -2.140982E-14  2.050283E-02  5.086778E-15
       147  5.392364E-05  2.052066E-02 -2.531288E-03
       148 -2.673469E-14  2.586013E-02  5.497528E-15
       149 -4.050220E-05  3.166780E-02  2.965997E-03
       150 -3.240160E-14  3.165319E-02  5.800362E-15
       151  4.050220E-05  3.166780E-02 -2.965997E-03
       152 -3.830233E-14  3.781997E-02  5.973710E-15
       153 -2.736725E-05  4.430636E-02  3.276099E-03
       154 -4.432270E-14  4.429407E-02  6.111864E-15
       155  2.736725E-05  4.430636E-02 -3.276099E-03
       156 -5.045480E-14  5.102159E-02  6.159353E-15
       157 -1.182060E-05  5.793658E-02  3.463508E-03
       158 -5.662593E-14  5.792588E-02  6.239715E-15
       159  1.182060E-05  5.793658E-02 -3.463508E-03
       160 -6.275766E-14  6.495286E-02  6.214660E-15
       161 -4.198666E-16  3.707042E-04 -4.834392E-04
       162  6.334089E-05  1.123934E-03 -9.959910E-04
       163 -1.495088E-15  1.138690E-03 -1.002448E-03
       164 -6.334089E-05  1.123934E-03 -9.959910E-04
       165 -3.244530E-15  2.621206E-03 -1.815707E-03
       166  7.596197E-05  4.818175E-03 -2.599090E-03
       167 -5.906842E-15  4.839002E-03 -2.599576E-03
       168 -7.596197E-05  4.818175E-03 -2.599090E-03
       169 -9.287935E-15  7.835191E-03 -3.305628E-03
       170  6.649299E-05  1.147833E-02 -3.961679E-03
       171 -1.337591E-14  1.149600E-02 -3.963027E-03
       172 -6.649299E-05  1.147833E-02 -3.961679E-03
       173 -1.799347E-14  1.578728E-02 -4.549779E-03
       174  5.388036E-05  2.061723E-02 -5.078464E-03
       175 -2.313893E-14  2.063093E-02 -5.078224E-03
       176 -5.388036E-05  2.061723E-02 -5.078464E-03
       177 -2.867319E-14  2.597470E-02 -5.543042E-03
       178  4.067797E-05  3.174122E-02 -5.947223E-03
       179 -3.461814E-14  3.175061E-02 -5.946882E-03
       180 -4.067797E-05  3.174122E-02 -5.947223E-03
       181 -4.075071E-14  3.790116E-02 -6.288489E-03
       182  2.662273E-05  4.435535E-02 -6.568970E-03
       183 -4.702575E-14  4.436137E-02 -6.568803E-03
       184 -2.662273E-05  4.435535E-02 -6.568970E-03
       185 -5.329992E-14  5.106908E-02 -6.784127E-03
       186  1.456072E-05  5.796380E-02 -6.938977E-03
       187 -5.957734E-14  5.795725E-02 -6.938879E-03
       188 -1.456072E-05  5.796380E-02 -6.938977E-03
       189 -6.582216E-14  6.495634E-02 -6.991423E-03
       190 -3.932212E-16  1.923931E-04 -5.187215E-16
       191 -6.402934E-05  9.921056E-04 -4.938028E-04
       192 -1.228482E-15  9.893144E-04 -1.080011E-15
       193  6.402934E-05  9.921056E-04  4.938028E-04
       194 -2.823805E-15  2.394404E-03 -1.932099E-15
       195 -7.603202E-05  4.682417E-03 -1.290166E-03
       196 -5.196689E-15  4.664555E-03 -2.736215E-15
       197  7.603202E-05  4.682417E-03  1.290166E-03
       198 -8.344697E-15  7.651280E-03 -3.442850E-15
       199 -6.652479E-05  1.135965E-02 -1.972674E-03
       200 -1.216030E-14  1.134028E-02 -4.061116E-15
       201  6.652479E-05  1.135965E-02  1.972674E-03
       202 -1.654163E-14  1.563864E-02 -4.589541E-15
       203 -5.392364E-05  2.052066E-02 -2.531288E-03
       204 -2.141874E-14  2.050283E-02 -5.033617E-15
       205  5.392364E-05  2.052066E-02  2.531288E-03
       206 -2.672158E-14  2.586013E-02 -5.413696E-15
       207 -4.050220E-05  3.166780E-02 -2.965997E-03
       208 -3.235604E-14  3.165319E-02 -5.711456E-15
       209  4.050220E-05  3.166780E-02  2.965997E-03
       210 -3.828512E-14  3.781997E-02 -5.916708E-15
       211 -2.736725E-05  4.430636E-02 -3.276099E-03
       212 -4.436257E-14  4.429407E-02 -6.012999E-15
       213  2.736725E-05  4.430636E-02  3.276099E-03
       214 -5.042886E-14  5.102159E-02 -6.045078E-15
       215 -1.182060E-05  5.793658E-02 -3.463508E-03
       216 -5.657627E-14  5.792588E-02 -6.078315E-15
       217  1.182060E-05  5.793658E-02  3.463508E-03
       218 -6.273388E-14  6.495286E-02 -6.111415E-15
       219 -3.089140E-16  2.504791E-04  6.525776E-19
       220 -9.478539E-16  1.063983E-03  4.880278E-04
       221 -1.179693E-15  1.047156E-03 -5.230877E-16
       222 -1.181269E-15  1.060137E-03  1.299296E-18
       223 -1.179924E-15  1.047156E-03  5.276304E-16
       224 -1.375224E-15  1.063983E-03 -4.880278E-04
       225 -2.715005E-15  2.478861E-03  5.529431E-18
       226 -4.659736E-15  4.763934E-03  1.296646E-03
       227 -5.140745E-15  4.725408E-03 -1.360064E-15
       228 -5.128193E-15  4.745088E-03  7.024028E-18
       229 -5.137922E-15  4.725408E-03  1.375285E-15
       230 -5.547031E-15  4.763934E-03 -1.296646E-03
       231 -8.270047E-15  7.725685E-03  8.918410E-18
       232 -1.139870E-14  1.142762E-02  1.976232E-03
       233 -1.211740E-14  1.139056E-02 -2.012259E-15
       234 -1.209769E-14  1.140731E-02  2.100587E-17
       235 -1.210729E-14  1.139056E-02  2.049007E-15
       236 -1.275705E-14  1.142762E-02 -1.976232E-03
       237 -1.647737E-14  1.569961E-02  2.123280E-17
       238 -2.045959E-14  2.057484E-02  2.534388E-03
       239 -2.137158E-14  2.054339E-02 -2.494966E-15
       240 -2.135862E-14  2.055681E-02  3.459476E-17
       241 -2.137193E-14  2.054339E-02  2.556802E-15
       242 -2.227819E-14  2.057484E-02 -2.534388E-03
       243 -2.668688E-14  2.590738E-02  3.642919E-17
       244 -3.120507E-14  3.170825E-02  2.968814E-03
       245 -3.235089E-14  3.168387E-02 -2.829376E-15
       246 -3.236699E-14  3.169449E-02  3.469447E-17
       247 -3.237948E-14  3.168387E-02  2.906150E-15
       248 -3.349826E-14  3.170825E-02 -2.968814E-03
       249 -3.827484E-14  3.785298E-02  5.175710E-17
       250 -4.296648E-14  4.433225E-02  3.279073E-03
       251 -4.435396E-14  4.431545E-02 -2.982497E-15
       252 -4.434907E-14  4.432257E-02  3.713327E-17
       253 -4.433650E-14  4.431545E-02  3.075719E-15
       254 -4.568882E-14  4.433225E-02 -3.279073E-03
       255 -5.043272E-14  5.104100E-02  4.466913E-17
       256 -5.506359E-14  5.794465E-02  3.466458E-03
       257 -5.659796E-14  5.793497E-02 -2.999405E-15
       258 -5.660239E-14  5.794011E-02  6.964983E-17
       259 -5.662051E-14  5.793497E-02  3.149119E-15
       260 -5.807377E-14  5.794465E-02 -3.466458E-03
       261 -6.273996E-14  6.495156E-02  7.198109E-17

 stresses (elem, integ.pnt.,sxx,syy,szz,sxy,sxz,syz) for set EALL and time  0.1000000E+01

         1   1  4.824394E+01  4.987478E+01  3.386188E+02 -3.981661E+00  1.915669E+01  1.270138E+01
         1   2  4.628328E+01  4.794215E+01  3.308656E+02  7.540363E-01  4.473658E+00  2.226094E+01
         1   3  2.497906E+00 -5.910777E+00  7.884289E+01 -3.748530E+00  4.993476E+00 -4.766310E+00
         1   4  2.017686E+00 -6.116735E+00  7.626865E+01  9.873702E-01  1.054408E+00  5.803984E+00
         1   5 -2.306717E+01 -1.869847E+01  3.049842E+02 -4.248930E-01 -6.733011E+00 -8.529813E-01
         1   6 -2.018447E+01 -1.679572E+01  3.110953E+02  9.619713E-03 -6.617959E-01  9.718518E-01
         1   7 -8.136292E+00 -8.068279E+00  7.832241E+01 -5.133311E-01 -2.342657E+00  1.578351E+01
         1   8 -7.390497E+00 -7.383502E+00  7.939131E+01 -7.806398E-02 -7.206406E-01  2.009762E+01
         2   1  4.628328E+01  4.794215E+01  3.308656E+02 -7.540363E-01 -4.473658E+00  2.226094E+01
         2   2  4.824394E+01  4.987478E+01  3.386188E+02  3.981661E+00 -1.915669E+01  1.270138E+01
         2   3  2.017686E+00 -6.116735E+00  7.626865E+01 -9.873702E-01 -1.054408E+00  5.803984E+00
         2   4  2.497906E+00 -5.910777E+00  7.884289E+01  3.748530E+00 -4.993476E+00 -4.766310E+00
         2   5 -2.018447E+01 -1.679572E+01  3.110953E+02 -9.619713E-03  6.617959E-01  9.718518E-01
         2   6 -2.306717E+01 -1.869847E+01  3.049842E+02  4.248930E-01  6.733011E+00 -8.529813E-01
         2   7 -7.390497E+00 -7.383502E+00  7.939131E+01  7.806398E-02  7.206406E-01  2.009762E+01
         2   8 -8.136292E+00 -8.068279E+00  7.832241E+01  5.133311E-01  2.342657E+00  1.578351E+01
         3   1 -2.497906E+00  5.910777E+00 -7.884289E+01 -3.748530E+00 -4.993476E+00 -4.766310E+00
         3   2 -2.017686E+00  6.116735E+00 -7.626865E+01  9.873702E-01 -1.054408E+00  5.803984E+00
         3   3 -4.824394E+01 -4.987478E+01 -3.386188E+02 -3.981661E+00 -1.915669E+01  1.270138E+01
         3   4 -4.628328E+01 -4.794215E+01 -3.308656E+02  7.540363E-01 -4.473658E+00  2.226094E+01
         3   5  8.136292E+00  8.068279E+00 -7.832241E+01 -5.133311E-01  2.342657E+00  1.578351E+01
         3   6  7.390497E+00  7.383502E+00 -7.939131E+01 -7.806398E-02  7.206406E-01  2.009762E+01
         3   7  2.306717E+01  1.869847E+01 -3.049842E+02 -4.248930E-01  6.733011E+00 -8.529813E-01
         3   8  2.018447E+01  1.679572E+01 -3.110953E+02  9.619713E-03  6.617959E-01  9.718518E-01
         4   1 -2.017686E+00  6.116735E+00 -7.626865E+01 -9.873702E-01  1.054408E+00  5.803984E+00
         4   2 -2.497906E+00  5.910777E+00 -7.884289E+01  3.748530E+00  4.993476E+00 -4.766310E+00
         4   3 -4.628328E+01 -4.794215E+01 -3.308656E+02 -7.540363E-01  4.473658E+00  2.226094E+01
         4   4 -4.824394E+01 -4.987478E+01 -3.386188E+02  3.981661E+00  1.915669E+01  1.270138E+01
         4   5  7.390497E+00  7.383502E+00 -7.939131E+01  7.806398E-02 -7.206406E-01  2.009762E+01
         4   6  8.136292E+00  8.068279E+00 -7.832241E+01  5.133311E-01 -2.342657E+00  1.578351E+01
         4   7  2.018447E+01  1.679572E+01 -3.110953E+02 -9.619713E-03 -6.617959E-01  9.718518E-01
         4   8  2.306717E+01  1.869847E+01 -3.049842E+02  4.248930E-01 -6.733011E+00 -8.529813E-01
         5   1  1.454317E+01  8.193355E+00  2.880696E+02  1.022369E+00  6.456450E+00  8.398436E+00
         5   2  1.536187E+01  6.933246E+00  2.878104E+02 -1.011792E+00  3.458872E+00  9.608308E+00
         5   3  8.021773E+00  1.241996E+01  8.160843E+01  5.595289E-01  1.254143E+00  7.032371E+00
         5   4  8.503151E+00  1.218660E+01  8.213176E+01 -1.474686E+00  4.500275E-01  1.096089E+01
         5   5 -7.246389E+00 -6.729689E+00  2.628989E+02 -1.094694E+00 -4.908962E+00  1.849788E+00
         5   6 -5.279724E+00 -5.479656E+00  2.667353E+02  1.395760E-01 -1.690185E+00  1.176998E+00
         5   7 -3.644122E+00 -6.390438E+00  6.904155E+01 -1.453950E+00 -1.206572E+00  1.711716E+01
         5   8 -2.934619E+00 -6.153422E+00  7.058281E+01 -2.224951E-01 -3.450202E-01  1.585605E+01
         6   1  1.536187E+01  6.933246E+00  2.878104E+02  1.011792E+00 -3.458872E+00  9.608308E+00
         6   2  1.454317E+01  8.193355E+00  2.880696E+02 -1.022369E+00 -6.456450E+00  8.398436E+00
         6   3  8.503151E+00  1.218660E+01  8.213176E+01  1.474686E+00 -4.500275E-01  1.096089E+01
         6   4  8.021773E+00  1.241996E+01  8.160843E+01 -5.595289E-01 -1.254143E+00  7.032371E+00
         6   5 -5.279724E+00 -5.479656E+00  2.667353E+02 -1.395760E-01  1.690185E+00  1.176998E+00
         6   6 -7.246389E+00 -6.729689E+00  2.628989E+02  1.094694E+00  4.908962E+00  1.849788E+00
         6   7 -2.934619E+00 -6.153422E+00  7.058281E+01  2.224951E-01  3.450202E-01  1.585605E+01
         6   8 -3.644122E+00 -6.390438E+00  6.904155E+01  1.453950E+00  1.206572E+00  1.711716E+01
         7   1 -8.021773E+00 -1.241996E+01 -8.160843E+01  5.595289E-01 -1.254143E+00  7.032371E+00
         7   2 -8.503151E+00 -1.218660E+01 -8.213176E+01 -1.474686E+00 -4.500275E-01  1.096089E+01
         7   3 -1.454317E+01 -8.193355E+00 -2.880696E+02  1.022369E+00 -6.456450E+00  8.398436E+00
         7   4 -1.536187E+01 -6.933246E+00 -2.878104E+02 -1.011792E+00 -3.458872E+00  9.608308E+00
         7   5  3.644122E+00  6.390438E+00 -6.904155E+01 -1.453950E+00  1.206572E+00  1.711716E+01
         7   6  2.934619E+00  6.153422E+00 -7.058281E+01 -2.224951E-01  3.450202E-01  1.585605E+01
         7   7  7.246389E+00  6.729689E+00 -2.628989E+02 -1.094694E+00  4.908962E+00  1.849788E+00
         7   8  5.279724E+00  5.479656E+00 -2.667353E+02  1.395760E-01  1.690185E+00  1.176998E+00
         8   1 -8.503151E+00 -1.218660E+01 -8.213176E+01  1.474686E+00  4.500275E-01  1.096089E+01
         8   2 -8.021773E+00 -1.241996E+01 -8.160843E+01 -5.595289E-01  1.254143E+00  7.032371E+00
         8   3 -1.536187E+01 -6.933246E+00 -2.878104E+02  1.011792E+00  3.458872E+00  9.608308E+00
         8   4 -1.454317E+01 -8.193355E+00 -2.880696E+02 -1.022369E+00  6.456450E+00  8.398436E+00
         8   5  2.934619E+00  6.153422E+00 -7.058281E+01  2.224951E-01 -3.450202E-01  1.585605E+01
         8   6  3.644122E+00  6.390438E+00 -6.904155E+01  1.453950E+00 -1.206572E+00  1.711716E+01
         8   7  5.279724E+00  5.479656E+00 -2.667353E+02 -1.395760E-01 -1.690185E+00  1.176998E+00
         8   8  7.246389E+00  6.729689E+00 -2.628989E+02  1.094694E+00 -4.908962E+00  1.849788E+00
         9   1  3.951605E+00  4.873302E+00  2.474885E+02  7.514307E-01  2.273343E+00  8.286198E+00
         9   2  2.634161E+00  3.802932E+00  2.452318E+02  1.309485E-02 -2.967411E-01  7.184899E+00
         9   3  1.802472E+00  3.435333E+00  6.703277E+01  7.422920E-01  8.808232E-01  1.141108E+01
         9   4  1.439554E+00  3.228713E+00  6.635619E+01  3.970661E-03  1.992962E-01  9.117819E+00
         9   5 -1.399563E+00 -2.143257E+00  2.215146E+02 -3.432568E-01 -1.450844E+00  4.128893E+00
         9   6 -5.961308E-01 -1.342602E+00  2.227713E+02 -1.599482E-01 -8.815650E-01  3.695590E+00
         9   7 -1.084972E+00 -2.269392E+00  5.858079E+01 -2.897822E-01 -2.266372E-01  1.494655E+01
         9   8 -8.653525E-01 -1.938413E+00  5.885987E+01 -9.596573E-02 -6.697431E-02  1.322896E+01
        10   1  2.634161E+00  3.802932E+00  2.452318E+02 -1.309485E-02  2.967411E-01  7.184899E+00
        10   2  3.951605E+00  4.873302E+00  2.474885E+02 -7.514307E-01 -2.273343E+00  8.286198E+00
        10   3  1.439554E+00  3.228713E+00  6.635619E+01 -3.970661E-03 -1.992962E-01  9.117819E+00
        10   4  1.802472E+00  3.435333E+00  6.703277E+01 -7.422920E-01 -8.808232E-01  1.141108E+01
        10   5 -5.961308E-01 -1.342602E+00  2.227713E+02  1.599482E-01  8.815650E-01  3.695590E+00
        10   6 -1.399563E+00 -2.143257E+00  2.215146E+02  3.432568E-01  1.450844E+00  4.128893E+00
        10   7 -8.653525E-01 -1.938413E+00  5.885987E+01  9.596573E-02  6.697431E-02  1.322896E+01
        10   8 -1.084972E+00 -2.269392E+00  5.858079E+01  2.897822E-01  2.266372E-01  1.494655E+01
        11   1 -1.802472E+00 -3.435333E+00 -6.703277E+01  7.422920E-01 -8.808232E-01  1.141108E+01
        11   2 -1.439554E+00 -3.228713E+00 -6.635619E+01  3.970661E-03 -1.992962E-01  9.117819E+00
        11   3 -3.951605E+00 -4.873302E+00 -2.474885E+02  7.514307E-01 -2.273343E+00  8.286198E+00
        11   4 -2.634161E+00 -3.802932E+00 -2.452318E+02  1.309485E-02  2.967411E-01  7.184899E+00
        11   5  1.084972E+00  2.269392E+00 -5.858079E+01 -2.897822E-01  2.266372E-01  1.494655E+01
        11   6  8.653525E-01  1.938413E+00 -5.885987E+01 -9.596573E-02  6.697431E-02  1.322896E+01
        11   7  1.399563E+00  2.143257E+00 -2.215146E+02 -3.432568E-01  1.450844E+00  4.128893E+00
        11   8  5.961308E-01  1.342602E+00 -2.227713E+02 -1.599482E-01  8.815650E-01  3.695590E+00
        12   1 -1.439554E+00 -3.228713E+00 -6.635619E+01 -3.970661E-03  1.992962E-01  9.117819E+00
        12   2 -1.802472E+00 -3.435333E+00 -6.703277E+01 -7.422920E-01  8.808232E-01  1.141108E+01
        12   3 -2.634161E+00 -3.802932E+00 -2.452318E+02 -1.309485E-02 -2.967411E-01  7.184899E+00
        12   4 -3.951605E+00 -4.873302E+00 -2.474885E+02 -7.514307E-01  2.273343E+00  8.286198E+00
        12   5  8.653525E-01  1.938413E+00 -5.885987E+01  9.596573E-02 -6.697431E-02  1.322896E+01
        12   6  1.084972E+00  2.269392E+00 -5.858079E+01  2.897822E-01 -2.266372E-01  1.494655E+01
        12   7  5.961308E-01  1.342602E+00 -2.227713E+02  1.599482E-01 -8.815650E-01  3.695590E+00
        12   8  1.399563E+00  2.143257E+00 -2.215146E+02  3.432568E-01 -1.450844E+00  4.128893E+00
        13   1  7.574024E-01  1.280786E+00  2.041339E+02  1.577765E-01 -1.951868E-01  6.399920E+00
        13   2  5.169532E-01  7.452120E-01  2.034577E+02  1.480987E-01 -1.137887E-01  5.078614E+00
        13   3  7.905154E-01  1.796214E+00  5.529081E+01  9.382236E-02  9.691938E-02  1.320120E+01
        13   4  6.919995E-01  1.532847E+00  5.509502E+01  8.414065E-02  1.151631E-01  1.132027E+01
        13   5 -4.367057E-01 -9.355507E-01  1.792449E+02 -1.178269E-01 -7.385451E-01  5.048356E+00
        13   6 -2.148865E-01 -5.776868E-01  1.795704E+02 -2.748994E-02 -6.010296E-01  4.258168E+00
        13   7 -4.002638E-01 -9.504441E-01  4.777039E+01 -5.582621E-02 -1.424023E-02  1.427477E+01
        13   8 -2.746818E-01 -7.193682E-01  4.794324E+01 -4.705217E-03  1.904008E-02  1.241871E+01
        14   1  5.169532E-01  7.452120E-01  2.034577E+02 -1.480987E-01  1.137887E-01  5.078614E+00
        14   2  7.574024E-01  1.280786E+00  2.041339E+02 -1.577765E-01  1.951868E-01  6.399920E+00
        14   3  6.919995E-01  1.532847E+00  5.509502E+01 -8.414065E-02 -1.151631E-01  1.132027E+01
        14   4  7.905154E-01  1.796214E+00  5.529081E+01 -9.382236E-02 -9.691938E-02  1.320120E+01
        14   5 -2.148865E-01 -5.776868E-01  1.795704E+02  2.748994E-02  6.010296E-01  4.258168E+00
        14   6 -4.367057E-01 -9.355507E-01  1.792449E+02  1.178269E-01  7.385451E-01  5.048356E+00
        14   7 -2.746818E-01 -7.193682E-01  4.794324E+01  4.705217E-03 -1.904008E-02  1.241871E+01
        14   8 -4.002638E-01 -9.504441E-01  4.777039E+01  5.582621E-02  1.424023E-02  1.427477E+01
        15   1 -7.905154E-01 -1.796214E+00 -5.529081E+01  9.382236E-02 -9.691938E-02  1.320120E+01
        15   2 -6.919995E-01 -1.532847E+00 -5.509502E+01  8.414065E-02 -1.151631E-01  1.132027E+01
        15   3 -7.574024E-01 -1.280786E+00 -2.041339E+02  1.577765E-01  1.951868E-01  6.399920E+00
        15   4 -5.169532E-01 -7.452120E-01 -2.034577E+02  1.480987E-01  1.137887E-01  5.078614E+00
        15   5  4.002638E-01  9.504441E-01 -4.777039E+01 -5.582621E-02  1.424023E-02  1.427477E+01
        15   6  2.746818E-01  7.193682E-01 -4.794324E+01 -4.705217E-03 -1.904008E-02  1.241871E+01
        15   7  4.367057E-01  9.355507E-01 -1.792449E+02 -1.178269E-01  7.385451E-01  5.048356E+00
        15   8  2.148865E-01  5.776868E-01 -1.795704E+02 -2.748994E-02  6.010296E-01  4.258168E+00
        16   1 -6.919995E-01 -1.532847E+00 -5.509502E+01 -8.414065E-02  1.151631E-01  1.132027E+01
        16   2 -7.905154E-01 -1.796214E+00 -5.529081E+01 -9.382236E-02  9.691938E-02  1.320120E+01
        16   3 -5.169532E-01 -7.452120E-01 -2.034577E+02 -1.480987E-01 -1.137887E-01  5.078614E+00
        16   4 -7.574024E-01 -1.280786E+00 -2.041339E+02 -1.577765E-01 -1.951868E-01  6.399920E+00
        16   5  2.746818E-01  7.193682E-01 -4.794324E+01  4.705217E-03  1.904008E-02  1.241871E+01
        16   6  4.002638E-01  9.504441E-01 -4.777039E+01  5.582621E-02 -1.424023E-02  1.427477E+01
        16   7  2.148865E-01  5.776868E-01 -1.795704E+02  2.748994E-02 -6.010296E-01  4.258168E+00
        16   8  4.367057E-01  9.355507E-01 -1.792449E+02  1.178269E-01 -7.385451E-01  5.048356E+00
        17   1  2.649950E-01  6.775950E-01  1.613963E+02  9.460842E-02 -3.791419E-01  5.809770E+00
        17   2  1.196014E-01  4.103993E-01  1.612272E+02  5.093612E-02 -5.201628E-01  4.902004E+00
        17   3  2.657152E-01  6.526432E-01  4.345703E+01  2.044125E-02  7.236409E-02  1.361471E+01
        17   4  1.481532E-01  3.920646E-01  4.332663E+01 -2.323001E-02  4.426479E-02  1.167352E+01
        17   5 -2.190249E-01 -3.470773E-01  1.367773E+02 -3.262030E-02 -5.023704E-01  5.624583E+00
        17   6 -8.860884E-02 -2.021788E-01  1.368302E+02 -1.970973E-01 -5.779264E-01  4.610171E+00
        17   7 -2.258121E-01 -7.138010E-01  3.644593E+01  5.633750E-02  2.788287E-02  1.379230E+01
        17   8 -8.423709E-02 -3.926258E-01  3.656024E+01  3.821644E-02  1.732487E-02  1.197294E+01
        18   1  1.196014E-01  4.103993E-01  1.612272E+02 -5.093612E-02  5.201628E-01  4.902004E+00
        18   2  2.649950E-01  6.775950E-01  1.613963E+02 -9.460842E-02  3.791419E-01  5.809770E+00
        18   3  1.481532E-01  3.920646E-01  4.332663E+01  2.323001E-02 -4.426479E-02  1.167352E+01
        18   4  2.657152E-01  6.526432E-01  4.345703E+01 -2.044125E-02 -7.236409E-02  1.361471E+01
        18   5 -8.860884E-02 -2.021788E-01  1.368302E+02  1.970973E-01  5.779264E-01  4.610171E+00
        18   6 -2.190249E-01 -3.470773E-01  1.367773E+02  3.262030E-02  5.023704E-01  5.624583E+00
        18   7 -8.423709E-02 -3.926258E-01  3.656024E+01 -3.821644E-02 -1.732487E-02  1.197294E+01
        18   8 -2.258121E-01 -7.138010E-01  3.644593E+01 -5.633750E-02 -2.788287E-02  1.379230E+01
        19   1 -2.657152E-01 -6.526432E-01 -4.345703E+01  2.044125E-02 -7.236409E-02  1.361471E+01
        19   2 -1.481532E-01 -3.920646E-01 -4.332663E+01 -2.323001E-02 -4.426479E-02  1.167352E+01
        19   3 -2.649950E-01 -6.775950E-01 -1.613963E+02  9.460842E-02  3.791419E-01  5.809770E+00
        19   4 -1.196014E-01 -4.103993E-01 -1.612272E+02  5.093612E-02  5.201628E-01  4.902004E+00
        19   5  2.258121E-01  7.138010E-01 -3.644593E+01  5.633750E-02 -2.788287E-02  1.379230E+01
        19   6  8.423709E-02  3.926258E-01 -3.656024E+01  3.821644E-02 -1.732487E-02  1.197294E+01
        19   7  2.190249E-01  3.470773E-01 -1.367773E+02 -3.262030E-02  5.023704E-01  5.624583E+00
        19   8  8.860884E-02  2.021788E-01 -1.368302E+02 -1.970973E-01  5.779264E-01  4.610171E+00
        20   1 -1.481532E-01 -3.920646E-01 -4.332663E+01  2.323001E-02  4.426479E-02  1.167352E+01
        20   2 -2.657152E-01 -6.526432E-01 -4.345703E+01 -2.044125E-02  7.236409E-02  1.361471E+01
        20   3 -1.196014E-01 -4.103993E-01 -1.612272E+02 -5.093612E-02 -5.201628E-01  4.902004E+00
        20   4 -2.649950E-01 -6.775950E-01 -1.613963E+02 -9.460842E-02 -3.791419E-01  5.809770E+00
        20   5  8.423709E-02  3.926258E-01 -3.656024E+01 -3.821644E-02  1.732487E-02  1.197294E+01
        20   6  2.258121E-01  7.138010E-01 -3.644593E+01 -5.633750E-02  2.788287E-02  1.379230E+01
        20   7  8.860884E-02  2.021788E-01 -1.368302E+02  1.970973E-01 -5.779264E-01  4.610171E+00
        20   8  2.190249E-01  3.470773E-01 -1.367773E+02  3.262030E-02 -5.023704E-01  5.624583E+00