    1C
    1UUSER                                                              
    1UDATE              23.april.2025                                   
    1UTIME              21:43:28                                        
    1UHOST                                                              
    1UPGM               CalculiX                                        
    1UVERSION           Version DEVELOPMENT                             
    1UCOMPILETIME       Wed Apr 23 18:46:08 CEST 2025                    
    1UDIR                                                               
    1UDBN                                                               
    1UMAT    1EL                                                        
    2C                            90                                     1
 -1         1 1.00000E+00 0.00000E+00 0.00000E+00
 -1         2 0.00000E+00 0.00000E+00 0.00000E+00
 -1         3 1.00000E+00 1.00000E+00 0.00000E+00
 -1         4 5.00000E-01 0.00000E+00 0.00000E+00
 -1         5 5.00000E-01 5.00000E-01 0.00000E+00
 -1         6 1.00000E+00 5.00000E-01 0.00000E+00
 -1         7 0.00000E+00 1.00000E+00 0.00000E+00
 -1         8 0.00000E+00 5.00000E-01 0.00000E+00
 -1         9 5.00000E-01 1.00000E+00 0.00000E+00
 -1        10 1.00000E+00 0.00000E+00 8.00000E+00
 -1        11 1.00000E+00 1.00000E+00 8.00000E+00
 -1        12 0.00000E+00 0.00000E+00 8.00000E+00
 -1        13 1.00000E+00 5.00000E-01 8.00000E+00
 -1        14 5.00000E-01 5.00000E-01 8.00000E+00
 -1        15 5.00000E-01 0.00000E+00 8.00000E+00
 -1        16 0.00000E+00 1.00000E+00 8.00000E+00
 -1        17 5.00000E-01 1.00000E+00 8.00000E+00
 -1        18 0.00000E+00 5.00000E-01 8.00000E+00
 -1        19 1.00000E+00 0.00000E+00 1.98927E+00
 -1        20 1.00000E+00 0.00000E+00 9.94635E-01
 -1        21 5.00000E-01 0.00000E+00 9.94635E-01
 -1        22 0.00000E+00 0.00000E+00 2.15072E+00
 -1        23 5.00000E-01 0.00000E+00 2.07000E+00
 -1        24 0.00000E+00 0.00000E+00 1.07536E+00
 -1        25 1.00000E+00 0.00000E+00 4.02920E+00
 -1        26 1.00000E+00 0.00000E+00 3.00924E+00
 -1        27 5.00000E-01 0.00000E+00 3.08996E+00
 -1        28 0.00000E+00 0.00000E+00 4.10044E+00
 -1        29 5.00000E-01 0.00000E+00 4.06482E+00
 -1        30 0.00000E+00 0.00000E+00 3.12558E+00
 -1        31 1.00000E+00 0.00000E+00 6.00000E+00
 -1        32 1.00000E+00 0.00000E+00 5.01460E+00
 -1        33 5.00000E-01 0.00000E+00 5.05022E+00
 -1        34 0.00000E+00 0.00000E+00 6.00000E+00
 -1        35 5.00000E-01 0.00000E+00 6.00000E+00
 -1        36 0.00000E+00 0.00000E+00 5.05022E+00
 -1        37 1.00000E+00 0.00000E+00 7.00000E+00
 -1        38 5.00000E-01 0.00000E+00 7.00000E+00
 -1        39 0.00000E+00 0.00000E+00 7.00000E+00
 -1        40 0.00000E+00 1.00000E+00 1.98943E+00
 -1        41 0.00000E+00 5.00000E-01 9.94714E-01
 -1        42 0.00000E+00 1.00000E+00 9.94714E-01
 -1        43 0.00000E+00 5.00000E-01 2.07008E+00
 -1        44 0.00000E+00 1.00000E+00 4.02933E+00
 -1        45 0.00000E+00 5.00000E-01 3.09003E+00
 -1        46 0.00000E+00 1.00000E+00 3.00938E+00
 -1        47 0.00000E+00 5.00000E-01 4.06489E+00
 -1        48 0.00000E+00 1.00000E+00 6.00000E+00
 -1        49 0.00000E+00 5.00000E-01 5.05022E+00
 -1        50 0.00000E+00 1.00000E+00 5.01467E+00
 -1        51 0.00000E+00 5.00000E-01 6.00000E+00
 -1        52 0.00000E+00 5.00000E-01 7.00000E+00
 -1        53 0.00000E+00 1.00000E+00 7.00000E+00
 -1        54 1.00000E+00 1.00000E+00 1.78064E+00
 -1        55 5.00000E-01 1.00000E+00 8.90320E-01
 -1        56 1.00000E+00 1.00000E+00 8.90320E-01
 -1        57 5.00000E-01 1.00000E+00 1.88503E+00
 -1        58 1.00000E+00 1.00000E+00 3.80000E+00
 -1        59 5.00000E-01 1.00000E+00 2.89471E+00
 -1        60 1.00000E+00 1.00000E+00 2.79032E+00
 -1        61 5.00000E-01 1.00000E+00 3.91467E+00
 -1        62 1.00000E+00 1.00000E+00 6.00000E+00
 -1        63 5.00000E-01 1.00000E+00 5.01467E+00
 -1        64 1.00000E+00 1.00000E+00 4.90000E+00
 -1        65 5.00000E-01 1.00000E+00 6.00000E+00
 -1        66 5.00000E-01 1.00000E+00 7.00000E+00
 -1        67 1.00000E+00 1.00000E+00 7.00000E+00
 -1        68 1.00000E+00 5.00000E-01 8.90320E-01
 -1        69 1.00000E+00 5.00000E-01 1.88496E+00
 -1        70 1.00000E+00 5.00000E-01 2.89463E+00
 -1        71 1.00000E+00 5.00000E-01 3.91460E+00
 -1        72 1.00000E+00 5.00000E-01 5.01460E+00
 -1        73 1.00000E+00 5.00000E-01 6.00000E+00
 -1        74 1.00000E+00 5.00000E-01 7.00000E+00
 -1       149 4.99871E-01 4.99871E-01 3.99987E+00
 -1       150 5.00000E-01 5.00000E-01 1.98935E+00
 -1       151 5.00000E-01 5.00000E-01 8.90320E-01
 -1       152 2.49935E-01 2.49935E-01 3.07530E+00
 -1       153 2.49935E-01 7.49936E-01 4.01460E+00
 -1       154 2.49935E-01 2.49935E-01 4.05016E+00
 -1       155 2.49935E-01 7.49936E-01 4.99994E+00
 -1       156 2.49935E-01 2.49935E-01 4.99994E+00
 -1       157 7.49936E-01 7.49936E-01 3.89994E+00
 -1       158 2.49935E-01 7.49936E-01 2.99465E+00
 -1       159 7.49936E-01 7.49936E-01 4.99994E+00
 -1       160 5.00000E-01 5.00000E-01 7.00000E+00
 -1       161 5.00000E-01 5.00000E-01 6.00000E+00
 -1       162 7.49936E-01 2.49935E-01 2.99457E+00
 -1       163 7.49936E-01 2.49935E-01 4.01454E+00
 -1       164 7.49936E-01 2.49935E-01 4.99994E+00
 -3
    3C                            31                                     1
 -1        37    6    0    1
 -2         2        22        19        40        24        23        21        41        43       150
 -1        38    6    0    1
 -2         2         3        54         1         5        56       151         4         6        68
 -1        39    6    0    1
 -2        22        44        28       149        45        47        30       152       153       154
 -1        40    6    0    1
 -2        28        34       149        48        36       156       154        49        51       155
 -1        41    6    0    1
 -2        40         7        54         2        42        55        57        41         8       151
 -1        42    6    0    1
 -2        54         2        19        40       151        21        69        57        41       150
 -1        43    6    0    1
 -2        40        44       149        58        46       153       158        59        61       157
 -1        44    6    0    1
 -2        44        48       149        62        50       155       153        63        65       159
 -1        45    6    0    1
 -2        34        16        11        48        52        17       160        51        53        66
 -1        46    6    0    1
 -2        11        62        31        34        67        73        74       160       161        35
 -1        47    6    0    1
 -2        12        11        34        16        14       160        39        18        17        52
 -1        48    6    0    1
 -2        22        19        40       149        23       150        43       152       162       158
 -1        49    6    0    1
 -2         7         3        54         2         9        56        55         8         5       151
 -1        50    6    0    1
 -2        22        28        25       149        30        29        27       152       154       163
 -1        51    6    0    1
 -2         1         2        19        54         4        21        20        68       151        69
 -1        52    6    0    1
 -2        58        19        40        54        70       150        59        60        69        57
 -1        53    6    0    1
 -2        28        25       149        31        29       163       154        33        32       164
 -1        54    6    0    1
 -2        62        48        34        11        65        51       161        67        66       160
 -1        55    6    0    1
 -2       149        48        34        62       155        51       156       159        65       161
 -1        56    6    0    1
 -2        34        11        10        31       160        13        38        35        74        37
 -1        57    6    0    1
 -2        10        11        34        12        13       160        38        15        14        39
 -1        58    6    0    1
 -2        58        25        62       149        71        72        64       157       163       159
 -1        59    6    0    1
 -2        19        25        58       149        26        71        70       162       163       157
 -1        60    6    0    1
 -2        22        19       149        25        23       162       152        27        26       163
 -1        61    6    0    1
 -2        25        62       149        31        72       159       163        32        73       164
 -1        62    6    0    1
 -2        28        48       149        44        49       155       154        47        50       153
 -1        63    6    0    1
 -2        28        34        31       149        36        35        33       154       156       164
 -1        64    6    0    1
 -2        34        62        31       149       161        73        35       156       159       164
 -1        65    6    0    1
 -2        22       149        40        44       152       158        43        45       153        46
 -1        66    6    0    1
 -2        44        62       149        58        63       159       153        61        64       157
 -1        67    6    0    1
 -2       149        58        19        40       157        70       162       158        59       150
 -3
    1PSTEP                         3           1           1          
  100CL  101 1.000000000          90                     0    1           1
 -4  DISP        4    1
 -5  D1          1    2    1    0
 -5  D2          1    2    2    0
 -5  D3          1    2    3    0
 -5  ALL         1    2    0    0    1ALL
 -1         1 0.00000E+00 0.00000E+00 0.00000E+00
 -1         2 1.42857E-04-5.90890E-18 0.00000E+00
 -1         3 0.00000E+00-1.42857E-04 0.00000E+00
 -1         4 7.14286E-05-6.30193E-18 0.00000E+00
 -1         5 7.14286E-05-7.14286E-05 0.00000E+00
 -1         6-6.13395E-18-7.14286E-05 0.00000E+00
 -1         7 1.42857E-04-1.42857E-04 0.00000E+00
 -1         8 1.42857E-04-7.14286E-05 0.00000E+00
 -1         9 7.14286E-05-1.42857E-04 0.00000E+00
 -1        10-1.61855E-15-2.38321E-15 3.80952E-03
 -1        11-1.65644E-15-1.42857E-04 3.80952E-03
 -1        12 1.42857E-04-2.42005E-15 3.80952E-03
 -1        13-1.63751E-15-7.14286E-05 3.80952E-03
 -1        14 7.14286E-05-7.14286E-05 3.80952E-03
 -1        15 7.14286E-05-2.40080E-15 3.80952E-03
 -1        16 1.42857E-04-1.42857E-04 3.80952E-03
 -1        17 7.14286E-05-1.42857E-04 3.80952E-03
 -1        18 1.42857E-04-7.14286E-05 3.80952E-03
 -1        19-1.51674E-16-1.80851E-16 9.47271E-04
 -1        20-3.98954E-17-4.50660E-17 4.73636E-04
 -1        21 7.14286E-05-5.25618E-17 4.73636E-04
 -1        22 1.42857E-04-2.22438E-16 1.02415E-03
 -1        23 7.14286E-05-2.04342E-16 9.85713E-04
 -1        24 1.42857E-04-6.02732E-17 5.12077E-04
 -1        25-5.40908E-16-7.17379E-16 1.91867E-03
 -1        26-3.22845E-16-4.09009E-16 1.43297E-03
 -1        27 7.14286E-05-4.41292E-16 1.47141E-03
 -1        28 1.42857E-04-7.62359E-16 1.95259E-03
 -1        29 7.14286E-05-7.42397E-16 1.93563E-03
 -1        30 1.42857E-04-4.56259E-16 1.48837E-03
 -1        31-1.05169E-15-1.48431E-15 2.85714E-03
 -1        32-7.85504E-16-1.07942E-15 2.38791E-03
 -1        33 7.14286E-05-1.10785E-15 2.40487E-03
 -1        34 1.42857E-04-1.51495E-15 2.85714E-03
 -1        35 7.14286E-05-1.50113E-15 2.85714E-03
 -1        36 1.42857E-04-1.11856E-15 2.40487E-03
 -1        37-1.33297E-15-1.92829E-15 3.33333E-03
 -1        38 7.14286E-05-1.94560E-15 3.33333E-03
 -1        39 1.42857E-04-1.96240E-15 3.33333E-03
 -1        40 1.42857E-04-1.42857E-04 9.47347E-04
 -1        41 1.42857E-04-7.14286E-05 4.73674E-04
 -1        42 1.42857E-04-1.42857E-04 4.73674E-04
 -1        43 1.42857E-04-7.14286E-05 9.85750E-04
 -1        44 1.42857E-04-1.42857E-04 1.91873E-03
 -1        45 1.42857E-04-7.14286E-05 1.47144E-03
 -1        46 1.42857E-04-1.42857E-04 1.43304E-03
 -1        47 1.42857E-04-7.14286E-05 1.93566E-03
 -1        48 1.42857E-04-1.42857E-04 2.85714E-03
 -1        49 1.42857E-04-7.14286E-05 2.40487E-03
 -1        50 1.42857E-04-1.42857E-04 2.38794E-03
 -1        51 1.42857E-04-7.14286E-05 2.85714E-03
 -1        52 1.42857E-04-7.14286E-05 3.33333E-03
 -1        53 1.42857E-04-1.42857E-04 3.33333E-03
 -1        54-1.37268E-16-1.42857E-04 8.47924E-04
 -1        55 7.14286E-05-1.42857E-04 4.23962E-04
 -1        56-4.09388E-17-1.42857E-04 4.23962E-04
 -1        57 7.14286E-05-1.42857E-04 8.97636E-04
 -1        58-5.11899E-16-1.42857E-04 1.80952E-03
 -1        59 7.14286E-05-1.42857E-04 1.37844E-03
 -1        60-3.00107E-16-1.42857E-04 1.32872E-03
 -1        61 7.14286E-05-1.42857E-04 1.86413E-03
 -1        62-1.08558E-15-1.42857E-04 2.85714E-03
 -1        63 7.14286E-05-1.42857E-04 2.38794E-03
 -1        64-7.84173E-16-1.42857E-04 2.33333E-03
 -1        65 7.14286E-05-1.42857E-04 2.85714E-03
 -1        66 7.14286E-05-1.42857E-04 3.33333E-03
 -1        67-1.36842E-15-1.42857E-04 3.33333E-03
 -1        68-4.04276E-17-7.14286E-05 4.23962E-04
 -1        69-1.46516E-16-7.14286E-05 8.97598E-04
 -1        70-3.12393E-16-7.14286E-05 1.37840E-03
 -1        71-5.27857E-16-7.14286E-05 1.86410E-03
 -1        72-8.00392E-16-7.14286E-05 2.38791E-03
 -1        73-1.06894E-15-7.14286E-05 2.85714E-03
 -1        74-1.35092E-15-7.14286E-05 3.33333E-03
 -1       149 7.14470E-05-7.14101E-05 1.90470E-03
 -1       150 7.14286E-05-7.14286E-05 9.47309E-04
 -1       151 7.14286E-05-7.14286E-05 4.23962E-04
 -1       152 1.07152E-04-3.57051E-05 1.46443E-03
 -1       153 1.07152E-04-1.07134E-04 1.91171E-03
 -1       154 1.07152E-04-3.57051E-05 1.92865E-03
 -1       155 1.07152E-04-1.07134E-04 2.38092E-03
 -1       156 1.07152E-04-3.57051E-05 2.38092E-03
 -1       157 3.57235E-05-1.07134E-04 1.85711E-03
 -1       158 1.07152E-04-1.07134E-04 1.42602E-03
 -1       159 3.57235E-05-1.07134E-04 2.38092E-03
 -1       160 7.14286E-05-7.14286E-05 3.33333E-03
 -1       161 7.14286E-05-7.14286E-05 2.85714E-03
 -1       162 3.57235E-05-3.57051E-05 1.42599E-03
 -1       163 3.57235E-05-3.57051E-05 1.91168E-03
 -1       164 3.57235E-05-3.57051E-05 2.38092E-03
 -3
    1PSTEP                         4           1           1          
  100CL  101 1.000000000          90                     0    1           1
 -4  STRESS      6    1
 -5  SXX         1    4    1    1
 -5  SYY         1    4    2    2
 -5  SZZ         1    4    3    3
 -5  SXY         1    4    1    2
 -5  SYZ         1    4    2    3
 -5  SZX         1    4    3    1
 -1         1 3.37280E-13-4.59279E-13 9.99990E+01-1.36915E-13 1.51626E-13-1.67189E-13
 -1         2-1.49161E-13 1.58385E-13 9.99990E+01 3.18380E-14-2.86712E-13 6.03641E-14
 -1         3 1.75342E-12 2.45293E-13 9.99990E+01 6.96783E-13 2.76080E-13-1.19763E-12
 -1         4 1.42649E-13-2.23525E-14 9.99990E+01-6.30895E-14-1.14557E-13-1.74474E-13
 -1         5 5.22081E-13 3.12818E-13 9.99990E+01 3.00851E-13-3.98220E-14-5.84493E-13
 -1         6 3.15323E-13-4.67100E-13 9.99990E+01 2.85757E-13 2.32086E-13-6.00618E-13
 -1         7 2.36031E-13-7.42592E-15 9.99990E+01 1.03264E-13-2.02989E-13-3.90206E-13
 -1         8-2.20755E-13 4.42108E-14 9.99990E+01 1.67298E-14-2.19052E-13-1.13153E-13
 -1         9 1.69802E-12 3.61877E-13 9.99990E+01 2.46518E-13 3.21672E-14-9.59827E-13
 -1        10 2.79340E-13 1.23799E-13 9.99990E+01-1.53986E-13-2.20673E-13 3.31180E-13
 -1        11-2.89471E-13-3.74496E-13 9.99990E+01-1.74053E-13 2.14498E-13-6.94527E-14
 -1        12 2.61624E-13-1.71047E-13 9.99990E+01 4.59357E-13-5.58621E-13 5.62337E-13
 -1        13-2.25369E-14-2.41630E-13 9.99990E+01-2.09444E-13-2.22162E-13 1.98123E-13
 -1        14 6.69935E-14-4.41147E-13 9.99990E+01-2.16091E-14-4.12440E-13 4.19148E-13
 -1        15 2.14219E-13 8.94316E-14 9.99990E+01 1.33819E-14-3.45876E-13 2.32500E-13
 -1        16 7.07812E-14 2.83854E-13 9.99990E+01 4.29603E-16-7.42682E-14-5.59313E-13
 -1        17 5.09209E-14-7.36313E-14 9.99990E+01-2.08540E-13 6.66254E-14-4.07404E-13
 -1        18 1.42204E-13-1.13760E-13 9.99990E+01 2.92804E-13-2.41887E-13 1.05451E-13
 -1        19-1.74046E-13 7.05628E-14 9.99990E+01 1.75310E-14 1.23963E-13 1.44070E-14
 -1        20 3.59237E-13 3.31334E-14 9.99990E+01 5.00786E-14 1.28687E-13-9.74099E-14
 -1        21 2.70805E-14 1.93092E-14 9.99990E+01 7.80364E-14-6.21329E-14-5.46522E-14
 -1        22-2.23985E-13 1.12919E-14 9.99990E+01 8.91751E-14-1.61027E-13 2.06213E-13
 -1        23-2.05133E-13-7.42270E-14 9.99990E+01 2.22962E-14-1.87288E-13 3.51928E-15
 -1        24-1.81507E-13-2.82387E-13 9.99990E+01 1.23293E-13-1.44536E-13 1.25148E-13
 -1        25 1.75786E-13 2.14639E-14 9.99990E+01 8.54630E-14-1.35839E-13-1.70399E-13
 -1        26-2.70741E-13 1.20137E-13 9.99990E+01 9.30525E-14 1.12857E-13-1.43138E-13
 -1        27 1.49175E-13 8.17911E-15 9.99990E+01 2.03545E-13-3.02692E-13 1.14347E-13
 -1        28-7.30970E-14-2.40462E-13 9.99990E+01 4.54926E-14-8.60679E-13 5.59809E-13
 -1        29 1.25305E-13 8.78288E-15 9.99990E+01-3.37915E-14-5.31339E-13-2.25942E-13
 -1        30-2.50843E-13-1.87771E-13 9.99990E+01 9.49387E-14-4.45992E-13 3.96786E-13
 -1        31 3.97660E-14 6.84991E-14 9.99990E+01 3.15310E-14 2.32949E-13 2.76801E-13
 -1        32 5.23767E-14-6.77226E-14 9.99990E+01 1.29709E-13 9.56493E-14-7.47158E-14
 -1        33 7.63441E-15 1.56217E-13 9.99990E+01-4.63848E-14 4.53464E-13 2.80110E-13
 -1        34-1.59523E-14 8.41479E-14 9.99990E+01-6.71708E-14-2.22037E-13 4.24498E-14
 -1        35 1.78441E-13 1.76331E-13 9.99990E+01-5.69970E-14 4.77103E-14 1.85888E-13
 -1        36-1.35718E-13-2.96216E-13 9.99990E+01 1.72271E-13-3.77341E-13 3.73067E-13
 -1        37 1.77634E-13-8.65995E-15 9.99990E+01 1.36074E-13-1.71358E-13 5.66652E-13
 -1        38 1.68122E-13 1.11883E-13 9.99990E+01-1.41987E-13-1.40386E-13 1.21020E-13
 -1        39-2.26939E-13-8.36615E-14 9.99990E+01 2.82036E-13-2.92266E-13 1.21757E-13
 -1        40 1.08130E-13 1.11755E-13 9.99990E+01-3.67768E-14-2.94970E-13-7.79464E-13
 -1        41 8.65465E-14 2.83306E-14 9.99990E+01-1.02307E-14-2.63417E-13-2.51039E-13
 -1        42 1.00709E-13-5.89639E-14 9.99990E+01 1.60077E-13-3.68081E-13-4.27734E-13
 -1        43-2.04681E-13 3.37673E-14 9.99990E+01-8.77077E-14-2.22096E-13-3.94976E-13
 -1        44 7.49545E-14 1.99705E-13 9.99990E+01 1.22076E-13-1.25625E-13-1.16107E-12
 -1        45-8.33518E-14 2.64341E-13 9.99990E+01 1.15303E-13 7.94744E-14-5.52403E-13
 -1        46 3.19923E-13 6.48243E-14 9.99990E+01 6.60352E-14-1.82601E-13-1.08227E-12
 -1        47 4.13607E-14-1.68873E-14 9.99990E+01 9.02877E-14-7.65504E-13 5.43708E-14
 -1        48 4.33596E-14-2.00758E-13 9.99990E+01-5.42273E-14-2.46620E-13-5.22137E-13
 -1        49-7.14115E-14-1.33744E-13 9.99990E+01-8.37950E-14-5.01806E-13 6.52132E-13
 -1        50-1.44808E-13 8.40917E-14 9.99990E+01 2.65645E-14 1.28329E-13-1.00302E-12
 -1        51 2.28801E-13-1.54875E-14 9.99990E+01-4.05184E-14-4.86796E-13 1.99784E-14
 -1        52-2.74788E-13 3.35491E-13 9.99990E+01 2.94956E-14-1.46321E-13-3.94707E-13
 -1        53 2.69459E-13 6.18272E-14 9.99990E+01 1.24158E-13-3.22752E-13-1.67298E-13
 -1        54-1.83499E-13-2.53505E-13 9.99990E+01-1.75385E-13 8.72026E-14-3.69871E-13
 -1        55 1.00981E-13-1.78224E-13 9.99990E+01 5.25321E-14-1.77317E-14-4.26924E-13
 -1        56 7.16712E-13-1.16165E-13 9.99990E+01 2.75589E-13 2.01426E-13-6.52860E-13
 -1        57-3.24425E-14-8.57736E-14 9.99990E+01-4.21252E-14-1.23016E-13-7.27151E-13
 -1        58 4.45350E-14-2.00762E-13 9.99990E+01 3.69634E-14 2.81464E-13-1.84624E-14
 -1        59 3.35387E-13 3.05963E-13 9.99990E+01 1.01685E-13 9.85676E-14-3.27178E-13
 -1        60-1.96877E-13-3.30768E-13 9.99990E+01 1.02417E-13-1.19852E-13-5.64912E-13
 -1        61-2.77836E-13-2.33908E-13 9.99990E+01-7.07359E-14-1.36527E-13-6.15386E-13
 -1        62 2.51211E-13 1.19547E-13 9.99990E+01 1.08496E-15-3.01710E-13-1.71678E-13
 -1        63 2.68730E-13 3.76408E-13 9.99990E+01 9.31817E-14 6.04332E-14-5.76047E-13
 -1        64-2.92268E-13-2.75541E-13 9.99990E+01 8.00522E-14 2.97043E-13-7.60699E-14
 -1        65 2.37814E-13-1.26415E-13 9.99990E+01-5.42691E-14-6.25912E-13-5.88001E-13
 -1        66 5.27479E-14-1.94495E-13 9.99990E+01 5.29279E-14 2.96729E-13-4.19952E-13
 -1        67-5.55199E-13-4.86490E-13 9.99990E+01 4.82706E-14-1.28677E-14 1.80238E-13
 -1        68 3.14318E-14-3.12313E-13 9.99990E+01-2.37875E-13 1.32045E-13-4.17330E-14
 -1        69-1.79294E-13-7.62589E-14 9.99990E+01-1.78368E-13 1.20083E-13-1.55197E-13
 -1        70 2.81013E-13 2.12509E-13 9.99990E+01 1.48444E-13 3.16773E-13 1.54363E-13
 -1        71-3.16776E-14-3.72572E-13 9.99990E+01-1.24236E-13 1.57726E-13-1.62873E-13
 -1        72 3.70919E-13 3.76371E-13 9.99990E+01 9.80789E-14 7.54457E-14-1.71794E-13
 -1        73 4.17114E-14-1.33734E-13 9.99990E+01-9.76063E-15-4.55257E-13-2.81954E-13
 -1        74-4.67753E-14-7.22828E-15 9.99990E+01 9.24257E-14-2.21893E-13 2.82480E-13
 -1       149-1.64454E-13-2.25193E-14 9.99990E+01-1.13362E-13-2.99418E-13 1.48744E-14
 -1       150-1.11741E-13 1.37320E-14 9.99990E+01-6.50300E-14-6.56602E-14-3.38498E-13
 -1       151-1.55402E-13 3.36367E-14 9.99990E+01-9.51607E-14-8.54346E-14-1.20219E-13
 -1       152 8.52836E-14 2.74986E-13 9.99990E+01 5.39509E-14-1.13098E-13 1.80255E-13
 -1       153-1.09084E-13 9.11356E-14 9.99990E+01 3.40110E-14-2.78851E-13-4.54931E-13
 -1       154-9.16333E-14-2.04714E-13 9.99990E+01-2.99387E-14-8.81688E-13 3.42751E-14
 -1       155-3.10876E-13-1.30406E-13 9.99990E+01-1.44264E-13-2.17844E-13-3.90193E-13
 -1       156-2.98799E-13-3.12258E-13 9.99990E+01-1.19719E-13-2.60230E-13 7.61613E-14
 -1       157-1.94760E-13-2.57380E-13 9.99990E+01-1.03788E-13-5.05815E-14-4.62110E-14
 -1       158-7.35018E-14 1.10182E-13 9.99990E+01-3.23583E-14-1.73665E-13-3.42041E-13
 -1       159 2.04898E-13 3.01699E-13 9.99990E+01-6.85559E-14-4.98621E-14 5.61945E-14
 -1       160-5.11471E-14 5.31620E-14 9.99990E+01-1.28873E-13-2.41204E-14-9.88569E-14
 -1       161 1.82598E-13-8.56584E-14 9.99990E+01-1.22589E-13-5.86189E-13 9.03246E-15
 -1       162-1.72217E-13 6.83276E-14 9.99990E+01-6.09503E-15 1.48974E-14-2.73138E-14
 -1       163 1.10910E-13-7.66453E-15 9.99990E+01-2.29943E-14-1.88642E-13-1.24964E-13
 -1       164-1.43371E-13-1.45863E-13 9.99990E+01-9.36319E-14 4.21057E-14 1.88657E-13
 -3
 9999
