
                        S T E P       1


                                INCREMENT    10


 displacements (vx,vy,vz) for set N1 and time  0.1000000E-03

       100 -4.378280E-15 -2.403886E-02  6.331634E-18
