    1C
    1UUSER                                                              
    1UDATE              22.february.2024                                
    1UTIME              13:49:31                                        
    1UHOST                                                              
    1UPGM               CalculiX                                        
    1UVERSION           Version DEVELOPMENT                             
    1UCOMPILETIME       Thu 22 Feb 2024 09:48:29 AM CET                    
    1UDIR                                                               
    1UDBN                                                               
    1UMAT    1STEEL                                                     
    2C                           126                                     1
 -1         5 0.00000E+00-5.68434E-14 0.00000E+00
 -1         6 1.00000E+03-5.68434E-14 0.00000E+00
 -1         7 2.00000E+03-5.68434E-14 0.00000E+00
 -1         8 3.00000E+03-5.68434E-14 0.00000E+00
 -1         9 4.00000E+03-5.68434E-14 0.00000E+00
 -1        10 5.00000E+03-5.68434E-14 0.00000E+00
 -1        11 6.00000E+03-5.68434E-14 0.00000E+00
 -1        12 7.00000E+03-5.68434E-14 0.00000E+00
 -1        13 8.00000E+03-5.68434E-14 0.00000E+00
 -1        14 9.00000E+03-5.68434E-14 0.00000E+00
 -1        15 1.00000E+04-5.68434E-14 0.00000E+00
 -1        16 1.10000E+04-5.68434E-14 0.00000E+00
 -1        17 1.20000E+04-5.68434E-14 0.00000E+00
 -1        18 1.30000E+04-5.68434E-14 0.00000E+00
 -1        19 1.40000E+04-5.68434E-14 0.00000E+00
 -1        20 1.50000E+04-5.68434E-14 0.00000E+00
 -1        21 1.60000E+04-5.68434E-14 0.00000E+00
 -1        22 1.70000E+04-5.68434E-14 0.00000E+00
 -1        23 1.80000E+04-5.68434E-14 0.00000E+00
 -1        24 1.90000E+04-5.68434E-14 0.00000E+00
 -1        25 2.00000E+04-5.68434E-14 0.00000E+00
 -1        26 2.00000E+04 1.00000E+03 0.00000E+00
 -1        48 0.00000E+00 1.00000E+03 0.00000E+00
 -1        49 1.00000E+04 1.00000E+03 0.00000E+00
 -1        50 1.50000E+04 1.00000E+03 0.00000E+00
 -1        51 1.80000E+04 1.00000E+03 0.00000E+00
 -1        52 1.90000E+04 1.00000E+03 0.00000E+00
 -1        53 1.70000E+04 1.00000E+03 0.00000E+00
 -1        54 1.60000E+04 1.00000E+03 0.00000E+00
 -1        55 1.30000E+04 1.00000E+03 0.00000E+00
 -1        56 1.40000E+04 1.00000E+03 0.00000E+00
 -1        57 1.20000E+04 1.00000E+03 0.00000E+00
 -1        58 1.10000E+04 1.00000E+03 0.00000E+00
 -1        59 5.00000E+03 1.00000E+03 0.00000E+00
 -1        60 8.00000E+03 1.00000E+03 0.00000E+00
 -1        61 9.00000E+03 1.00000E+03 0.00000E+00
 -1        62 7.00000E+03 1.00000E+03 0.00000E+00
 -1        63 6.00000E+03 1.00000E+03 0.00000E+00
 -1        64 3.00000E+03 1.00000E+03 0.00000E+00
 -1        65 4.00000E+03 1.00000E+03 0.00000E+00
 -1        66 2.00000E+03 1.00000E+03 0.00000E+00
 -1        67 1.00000E+03 1.00000E+03 0.00000E+00
 -1        70 1.90000E+04 1.00000E+03 1.00000E+03
 -1        71 2.00000E+04 1.00000E+03 1.00000E+03
 -1        72 1.90000E+04-5.68434E-14 1.00000E+03
 -1        73 2.00000E+04-5.68434E-14 1.00000E+03
 -1        75 1.80000E+04 1.00000E+03 1.00000E+03
 -1        76 1.80000E+04-5.68434E-14 1.00000E+03
 -1        78 1.70000E+04 1.00000E+03 1.00000E+03
 -1        79 1.70000E+04-5.68434E-14 1.00000E+03
 -1        81 1.60000E+04 1.00000E+03 1.00000E+03
 -1        82 1.60000E+04-5.68434E-14 1.00000E+03
 -1        84 1.50000E+04 1.00000E+03 1.00000E+03
 -1        85 1.50000E+04-5.68434E-14 1.00000E+03
 -1        86 1.30000E+04 1.00000E+03 1.00000E+03
 -1        87 1.40000E+04 1.00000E+03 1.00000E+03
 -1        90 1.30000E+04-5.68434E-14 1.00000E+03
 -1        91 1.40000E+04-5.68434E-14 1.00000E+03
 -1        93 1.20000E+04 1.00000E+03 1.00000E+03
 -1        94 1.20000E+04-5.68434E-14 1.00000E+03
 -1        95 1.00000E+04 1.00000E+03 1.00000E+03
 -1        96 1.10000E+04 1.00000E+03 1.00000E+03
 -1        99 1.00000E+04-5.68434E-14 1.00000E+03
 -1       100 1.10000E+04-5.68434E-14 1.00000E+03
 -1       101 8.00000E+03 1.00000E+03 1.00000E+03
 -1       102 9.00000E+03 1.00000E+03 1.00000E+03
 -1       105 8.00000E+03-5.68434E-14 1.00000E+03
 -1       106 9.00000E+03-5.68434E-14 1.00000E+03
 -1       108 7.00000E+03 1.00000E+03 1.00000E+03
 -1       109 7.00000E+03-5.68434E-14 1.00000E+03
 -1       110 5.00000E+03 1.00000E+03 1.00000E+03
 -1       111 6.00000E+03 1.00000E+03 1.00000E+03
 -1       114 5.00000E+03-5.68434E-14 1.00000E+03
 -1       115 6.00000E+03-5.68434E-14 1.00000E+03
 -1       116 3.00000E+03 1.00000E+03 1.00000E+03
 -1       117 4.00000E+03 1.00000E+03 1.00000E+03
 -1       120 3.00000E+03-5.68434E-14 1.00000E+03
 -1       121 4.00000E+03-5.68434E-14 1.00000E+03
 -1       123 2.00000E+03 1.00000E+03 1.00000E+03
 -1       124 2.00000E+03-5.68434E-14 1.00000E+03
 -1       126 1.00000E+03 1.00000E+03 1.00000E+03
 -1       127 1.00000E+03-5.68434E-14 1.00000E+03
 -1       129 0.00000E+00 1.00000E+03 1.00000E+03
 -1       130 0.00000E+00-5.68434E-14 1.00000E+03
 -1       133 1.90000E+04 1.00000E+03 2.00000E+03
 -1       134 2.00000E+04 1.00000E+03 2.00000E+03
 -1       135 1.90000E+04-5.68434E-14 2.00000E+03
 -1       136 2.00000E+04-5.68434E-14 2.00000E+03
 -1       138 1.80000E+04 1.00000E+03 2.00000E+03
 -1       139 1.80000E+04-5.68434E-14 2.00000E+03
 -1       141 1.70000E+04 1.00000E+03 2.00000E+03
 -1       142 1.70000E+04-5.68434E-14 2.00000E+03
 -1       144 1.60000E+04 1.00000E+03 2.00000E+03
 -1       145 1.60000E+04-5.68434E-14 2.00000E+03
 -1       147 1.50000E+04 1.00000E+03 2.00000E+03
 -1       148 1.50000E+04-5.68434E-14 2.00000E+03
 -1       149 1.30000E+04 1.00000E+03 2.00000E+03
 -1       150 1.40000E+04 1.00000E+03 2.00000E+03
 -1       153 1.30000E+04-5.68434E-14 2.00000E+03
 -1       154 1.40000E+04-5.68434E-14 2.00000E+03
 -1       156 1.20000E+04 1.00000E+03 2.00000E+03
 -1       157 1.20000E+04-5.68434E-14 2.00000E+03
 -1       158 1.00000E+04 1.00000E+03 2.00000E+03
 -1       159 1.10000E+04 1.00000E+03 2.00000E+03
 -1       162 1.00000E+04-5.68434E-14 2.00000E+03
 -1       163 1.10000E+04-5.68434E-14 2.00000E+03
 -1       164 8.00000E+03 1.00000E+03 2.00000E+03
 -1       165 9.00000E+03 1.00000E+03 2.00000E+03
 -1       168 8.00000E+03-5.68434E-14 2.00000E+03
 -1       169 9.00000E+03-5.68434E-14 2.00000E+03
 -1       171 7.00000E+03 1.00000E+03 2.00000E+03
 -1       172 7.00000E+03-5.68434E-14 2.00000E+03
 -1       173 5.00000E+03 1.00000E+03 2.00000E+03
 -1       174 6.00000E+03 1.00000E+03 2.00000E+03
 -1       177 5.00000E+03-5.68434E-14 2.00000E+03
 -1       178 6.00000E+03-5.68434E-14 2.00000E+03
 -1       179 3.00000E+03 1.00000E+03 2.00000E+03
 -1       180 4.00000E+03 1.00000E+03 2.00000E+03
 -1       183 3.00000E+03-5.68434E-14 2.00000E+03
 -1       184 4.00000E+03-5.68434E-14 2.00000E+03
 -1       186 2.00000E+03 1.00000E+03 2.00000E+03
 -1       187 2.00000E+03-5.68434E-14 2.00000E+03
 -1       189 1.00000E+03 1.00000E+03 2.00000E+03
 -1       190 1.00000E+03-5.68434E-14 2.00000E+03
 -1       192 0.00000E+00 1.00000E+03 2.00000E+03
 -1       193 0.00000E+00-5.68434E-14 2.00000E+03
 -3
    3C                            40                                     1
 -1        42    1    0    1
 -2        26        52        24        25        71        70        72        73
 -1        44    1    0    1
 -2        52        51        23        24        70        75        76        72
 -1        46    1    0    1
 -2        51        53        22        23        75        78        79        76
 -1        48    1    0    1
 -2        53        54        21        22        78        81        82        79
 -1        50    1    0    1
 -2        54        50        20        21        81        84        85        82
 -1        53    1    0    1
 -2        18        19        56        55        90        91        87        86
 -1        54    1    0    1
 -2        19        20        50        56        91        85        84        87
 -1        56    1    0    1
 -2        55        57        17        18        86        93        94        90
 -1        59    1    0    1
 -2        15        16        58        49        99       100        96        95
 -1        60    1    0    1
 -2        16        17        57        58       100        94        93        96
 -1        63    1    0    1
 -2        13        14        61        60       105       106       102       101
 -1        64    1    0    1
 -2        14        15        49        61       106        99        95       102
 -1        66    1    0    1
 -2        60        62        12        13       101       108       109       105
 -1        69    1    0    1
 -2        10        11        63        59       114       115       111       110
 -1        70    1    0    1
 -2        11        12        62        63       115       109       108       111
 -1        73    1    0    1
 -2         8         9        65        64       120       121       117       116
 -1        74    1    0    1
 -2         9        10        59        65       121       114       110       117
 -1        76    1    0    1
 -2        64        66         7         8       116       123       124       120
 -1        78    1    0    1
 -2        66        67         6         7       123       126       127       124
 -1        80    1    0    1
 -2        67        48         5         6       126       129       130       127
 -1        82    1    0    1
 -2        71        70        72        73       134       133       135       136
 -1        84    1    0    1
 -2        70        75        76        72       133       138       139       135
 -1        86    1    0    1
 -2        75        78        79        76       138       141       142       139
 -1        88    1    0    1
 -2        78        81        82        79       141       144       145       142
 -1        90    1    0    1
 -2        81        84        85        82       144       147       148       145
 -1        93    1    0    1
 -2        90        91        87        86       153       154       150       149
 -1        94    1    0    1
 -2        91        85        84        87       154       148       147       150
 -1        96    1    0    1
 -2        86        93        94        90       149       156       157       153
 -1        99    1    0    1
 -2        99       100        96        95       162       163       159       158
 -1       100    1    0    1
 -2       100        94        93        96       163       157       156       159
 -1       103    1    0    1
 -2       105       106       102       101       168       169       165       164
 -1       104    1    0    1
 -2       106        99        95       102       169       162       158       165
 -1       106    1    0    1
 -2       101       108       109       105       164       171       172       168
 -1       109    1    0    1
 -2       114       115       111       110       177       178       174       173
 -1       110    1    0    1
 -2       115       109       108       111       178       172       171       174
 -1       113    1    0    1
 -2       120       121       117       116       183       184       180       179
 -1       114    1    0    1
 -2       121       114       110       117       184       177       173       180
 -1       116    1    0    1
 -2       116       123       124       120       179       186       187       183
 -1       118    1    0    1
 -2       123       126       127       124       186       189       190       187
 -1       120    1    0    1
 -2       126       129       130       127       189       192       193       190
 -3
    1PSTEP                         1           1           1          
  100CL  101 1.000000000         126                     0    1           1
 -4  DISP        4    1
 -5  D1          1    2    1    0
 -5  D2          1    2    2    0
 -5  D3          1    2    3    0
 -5  ALL         1    2    0    0    1ALL
 -1         5 0.00000E+00 0.00000E+00-2.18866E-02
 -1         6-8.04762E-01 1.96728E-13-4.42399E-01
 -1         7-1.56825E+00 5.58098E-13-1.66206E+00
 -1         8-2.29048E+00 1.05434E-12-3.62200E+00
 -1         9-2.97143E+00 1.68071E-12-6.28397E+00
 -1        10-3.61111E+00 2.43073E-12-9.60618E+00
 -1        11-4.20952E+00 3.30055E-12-1.35475E+01
 -1        12-4.76667E+00 4.29282E-12-1.80665E+01
 -1        13-5.28254E+00 5.40339E-12-2.31221E+01
 -1        14-5.75714E+00 6.62761E-12-2.86728E+01
 -1        15-6.19048E+00 7.97580E-12-3.46776E+01
 -1        16-6.58254E+00 9.46967E-12-4.10951E+01
 -1        17-6.93333E+00 1.10991E-11-4.78840E+01
 -1        18-7.24286E+00 1.28447E-11-5.50030E+01
 -1        19-7.51111E+00 1.47137E-11-6.24109E+01
 -1        20-7.73810E+00 1.66418E-11-7.00665E+01
 -1        21-7.92381E+00 1.85684E-11-7.79284E+01
 -1        22-8.06825E+00 2.04451E-11-8.59554E+01
 -1        23-8.17143E+00 2.22856E-11-9.41059E+01
 -1        24-8.23333E+00 2.40571E-11-1.02341E+02
 -1        25-8.25397E+00 2.57602E-11-1.10603E+02
 -1        26-8.25397E+00 2.57707E-11-1.10603E+02
 -1        48 0.00000E+00 0.00000E+00-2.18866E-02
 -1        49-6.19048E+00 7.97733E-12-3.46776E+01
 -1        50-7.73810E+00 1.66419E-11-7.00665E+01
 -1        51-8.17143E+00 2.22884E-11-9.41059E+01
 -1        52-8.23333E+00 2.40432E-11-1.02341E+02
 -1        53-8.06825E+00 2.04467E-11-8.59554E+01
 -1        54-7.92381E+00 1.85707E-11-7.79284E+01
 -1        55-7.24286E+00 1.28513E-11-5.50030E+01
 -1        56-7.51111E+00 1.47066E-11-6.24109E+01
 -1        57-6.93333E+00 1.10978E-11-4.78840E+01
 -1        58-6.58254E+00 9.46739E-12-4.10951E+01
 -1        59-3.61111E+00 2.43036E-12-9.60618E+00
 -1        60-5.28254E+00 5.40511E-12-2.31221E+01
 -1        61-5.75714E+00 6.62557E-12-2.86728E+01
 -1        62-4.76667E+00 4.29131E-12-1.80665E+01
 -1        63-4.20952E+00 3.30007E-12-1.35475E+01
 -1        64-2.29048E+00 1.05497E-12-3.62200E+00
 -1        65-2.97143E+00 1.67992E-12-6.28397E+00
 -1        66-1.56825E+00 5.57972E-13-1.66206E+00
 -1        67-8.04762E-01 1.96733E-13-4.42399E-01
 -1        70-8.32922E-13 2.09040E-11-1.02338E+02
 -1        71-8.31811E-13 2.26026E-11-1.10625E+02
 -1        72 8.67497E-13 2.09037E-11-1.02338E+02
 -1        73 8.67787E-13 2.26035E-11-1.10625E+02
 -1        75-8.29092E-13 1.92035E-11-9.41065E+01
 -1        76 8.62892E-13 1.92066E-11-9.41065E+01
 -1        78-8.35756E-13 1.75248E-11-8.59553E+01
 -1        79 8.66765E-13 1.75218E-11-8.59553E+01
 -1        81-8.37350E-13 1.58022E-11-7.79284E+01
 -1        82 8.67313E-13 1.58015E-11-7.79284E+01
 -1        84-8.37106E-13 1.40920E-11-7.00665E+01
 -1        85 8.61596E-13 1.40945E-11-7.00665E+01
 -1        86-7.83860E-13 1.07805E-11-5.50030E+01
 -1        87-8.16376E-13 1.24199E-11-6.24109E+01
 -1        90 8.01730E-13 1.07839E-11-5.50030E+01
 -1        91 8.36712E-13 1.24192E-11-6.24109E+01
 -1        93-7.38965E-13 9.23415E-12-4.78840E+01
 -1        94 7.53466E-13 9.23141E-12-4.78840E+01
 -1        95-6.16946E-13 6.49407E-12-3.46776E+01
 -1        96-6.79344E-13 7.80264E-12-4.10951E+01
 -1        99 6.30172E-13 6.49599E-12-3.46776E+01
 -1       100 6.92849E-13 7.80165E-12-4.10951E+01
 -1       101-5.06056E-13 4.23638E-12-2.31221E+01
 -1       102-5.59145E-13 5.31056E-12-2.86728E+01
 -1       105 5.14135E-13 4.23557E-12-2.31221E+01
 -1       106 5.71985E-13 5.30961E-12-2.86728E+01
 -1       108-4.49460E-13 3.27324E-12-1.80665E+01
 -1       109 4.56515E-13 3.27365E-12-1.80665E+01
 -1       110-3.30357E-13 1.69724E-12-9.60618E+00
 -1       111-3.90833E-13 2.42519E-12-1.35475E+01
 -1       114 3.34751E-13 1.69752E-12-9.60618E+00
 -1       115 3.97480E-13 2.42502E-12-1.35475E+01
 -1       116-2.02913E-13 6.20618E-13-3.62211E+00
 -1       117-2.67915E-13 1.09572E-12-6.28395E+00
 -1       120 2.05093E-13 6.20774E-13-3.62211E+00
 -1       121 2.71059E-13 1.09539E-12-6.28395E+00
 -1       123-1.37036E-13 2.78444E-13-1.66141E+00
 -1       124 1.38418E-13 2.78454E-13-1.66141E+00
 -1       126-6.92364E-14 7.04882E-14-4.46154E-01
 -1       127 7.01165E-14 7.04580E-14-4.46154E-01
 -1       129 0.00000E+00 0.00000E+00 0.00000E+00
 -1       130 0.00000E+00 0.00000E+00 0.00000E+00
 -1       133 8.23333E+00 1.77223E-11-1.02341E+02
 -1       134 8.25397E+00 1.93904E-11-1.10603E+02
 -1       135 8.23333E+00 1.77068E-11-1.02341E+02
 -1       136 8.25397E+00 1.93944E-11-1.10603E+02
 -1       138 8.17143E+00 1.60963E-11-9.41059E+01
 -1       139 8.17143E+00 1.61102E-11-9.41059E+01
 -1       141 8.06825E+00 1.45574E-11-8.59554E+01
 -1       142 8.06825E+00 1.45469E-11-8.59554E+01
 -1       144 7.92381E+00 1.30461E-11-7.79284E+01
 -1       145 7.92381E+00 1.30500E-11-7.79284E+01
 -1       147 7.73810E+00 1.15723E-11-7.00665E+01
 -1       148 7.73810E+00 1.15715E-11-7.00665E+01
 -1       149 7.24286E+00 8.73642E-12-5.50030E+01
 -1       150 7.51111E+00 1.01152E-11-6.24109E+01
 -1       153 7.24286E+00 8.73382E-12-5.50030E+01
 -1       154 7.51111E+00 1.01233E-11-6.24109E+01
 -1       156 6.93333E+00 7.40522E-12-4.78840E+01
 -1       157 6.93333E+00 7.40544E-12-4.78840E+01
 -1       158 6.19048E+00 5.03023E-12-3.46776E+01
 -1       159 6.58254E+00 6.16394E-12-4.10951E+01
 -1       162 6.19048E+00 5.03084E-12-3.46776E+01
 -1       163 6.58254E+00 6.16167E-12-4.10951E+01
 -1       164 5.28254E+00 3.06582E-12-2.31221E+01
 -1       165 5.75714E+00 3.99692E-12-2.86728E+01
 -1       168 5.28254E+00 3.06727E-12-2.31221E+01
 -1       169 5.75714E+00 3.99878E-12-2.86728E+01
 -1       171 4.76667E+00 2.25415E-12-1.80665E+01
 -1       172 4.76667E+00 2.25195E-12-1.80665E+01
 -1       173 3.61111E+00 9.66618E-13-9.60618E+00
 -1       174 4.20952E+00 1.54860E-12-1.35475E+01
 -1       177 3.61111E+00 9.66034E-13-9.60618E+00
 -1       178 4.20952E+00 1.54914E-12-1.35475E+01
 -1       179 2.29048E+00 1.88917E-13-3.62200E+00
 -1       180 2.97143E+00 5.10802E-13-6.28397E+00
 -1       183 2.29048E+00 1.88932E-13-3.62200E+00
 -1       184 2.97143E+00 5.11163E-13-6.28397E+00
 -1       186 1.56825E+00-6.05214E-17-1.66206E+00
 -1       187 1.56825E+00-1.02808E-17-1.66206E+00
 -1       189 8.04762E-01-5.55522E-14-4.42399E-01
 -1       190 8.04762E-01-5.55080E-14-4.42399E-01
 -1       192 0.00000E+00 0.00000E+00-2.18866E-02
 -1       193 0.00000E+00 0.00000E+00-2.18866E-02
 -3
    1PSTEP                         2           1           1          
  100CL  101 1.000000000         126                     0    1           1
 -4  STRESS      6    1
 -5  SXX         1    4    1    1
 -5  SYY         1    4    2    2
 -5  SZZ         1    4    3    3
 -5  SXY         1    4    1    2
 -5  SYZ         1    4    2    3
 -5  SZX         1    4    3    1
 -1         5-1.68996E+02-7.10895E-20 4.59610E+00 2.06601E-11 3.85976E-12-4.41534E+01
 -1         6-1.64663E+02 9.62433E-16-7.88604E-01 5.39052E-12 1.90077E-13-1.60894E+00
 -1         7-1.55996E+02-2.65498E-14 1.35303E-01 6.32692E-12 1.34806E-13-2.26221E+00
 -1         8-1.47330E+02 1.33768E-13-2.32143E-02 6.43963E-12 1.93436E-13-2.15013E+00
 -1         9-1.38663E+02-1.66292E-13 3.98295E-03 6.35433E-12-1.74096E-13-2.16936E+00
 -1        10-1.29997E+02-7.79881E-14-6.83366E-04 6.11046E-12 3.06213E-13-2.16606E+00
 -1        11-1.21331E+02-1.00497E-13 1.17247E-04 6.42696E-12-1.64227E-14-2.16663E+00
 -1        12-1.12664E+02-3.17658E-13-2.01159E-05 6.11593E-12-1.06021E-12-2.16653E+00
 -1        13-1.03998E+02 3.61191E-13 3.44844E-06 6.39694E-12 3.94983E-13-2.16655E+00
 -1        14-9.53311E+01-4.28446E-13-5.74746E-07 7.26650E-12-1.02496E-12-2.16654E+00
 -1        15-8.66647E+01 3.21528E-13 3.00534E-12 7.38497E-12 9.09706E-13-2.16654E+00
 -1        16-7.79982E+01-4.80524E-13 5.74746E-07 8.57653E-12 1.35598E-12-2.16654E+00
 -1        17-6.93317E+01-2.82965E-13-3.44844E-06 8.68708E-12 1.68108E-12-2.16655E+00
 -1        18-6.06653E+01 1.38599E-12 2.01159E-05 8.23110E-12 2.77944E-12-2.16653E+00
 -1        19-5.19988E+01-1.48693E-12-1.17247E-04 1.00131E-11-1.35419E-12-2.16663E+00
 -1        20-4.33323E+01 2.84350E-14 6.83366E-04 1.07951E-11 1.07428E-12-2.16606E+00
 -1        21-3.46659E+01 4.82347E-13-3.98295E-03 7.40792E-12 1.64246E-12-2.16936E+00
 -1        22-2.59994E+01 3.21718E-13 2.32143E-02 7.89176E-12 3.56698E-13-2.15013E+00
 -1        23-1.73329E+01 5.81789E-13-1.35303E-01 5.65224E-12-4.58717E-13-2.26221E+00
 -1        24-8.66647E+00-2.91910E-12 7.88604E-01 2.34864E-12-2.29297E-12-1.60894E+00
 -1        25-4.33323E+00 2.20023E-12-4.59610E+00-2.35292E-12-2.71770E-12-8.20358E-01
 -1        26-4.33323E+00 2.20023E-12-4.59610E+00 1.68634E-13-3.75966E-12-8.20358E-01
 -1        48-1.68996E+02-7.10895E-20 4.59610E+00 2.06605E-11 3.85976E-12-4.41534E+01
 -1        49-8.66647E+01 3.21528E-13-1.03208E-12 7.37736E-12 1.61285E-12-2.16654E+00
 -1        50-4.33323E+01 2.84350E-14 6.83366E-04 1.11274E-11 4.97668E-13-2.16606E+00
 -1        51-1.73329E+01 5.81789E-13-1.35303E-01 4.58989E-12 1.96753E-12-2.26221E+00
 -1        52-8.66647E+00-2.91910E-12 7.88604E-01 2.84475E-12-1.64588E-12-1.60894E+00
 -1        53-2.59994E+01 3.21718E-13 2.32143E-02 8.06463E-12-9.16929E-13-2.15013E+00
 -1        54-3.46659E+01 4.82347E-13-3.98295E-03 7.61675E-12 8.89971E-13-2.16936E+00
 -1        55-6.06653E+01 1.38599E-12 2.01159E-05 7.53849E-12 1.64325E-12-2.16653E+00
 -1        56-5.19988E+01-1.48693E-12-1.17247E-04 1.01386E-11-1.46285E-12-2.16663E+00
 -1        57-6.93317E+01-2.82965E-13-3.44844E-06 9.35071E-12 2.20909E-12-2.16655E+00
 -1        58-7.79982E+01-4.80524E-13 5.74736E-07 8.31648E-12-6.82120E-13-2.16654E+00
 -1        59-1.29997E+02-7.79881E-14-6.83366E-04 6.32878E-12 2.55911E-13-2.16606E+00
 -1        60-1.03998E+02 3.61191E-13 3.44844E-06 6.36693E-12 9.12631E-14-2.16655E+00
 -1        61-9.53311E+01-4.28446E-13-5.74739E-07 7.27688E-12-1.83530E-13-2.16654E+00
 -1        62-1.12664E+02-3.17658E-13-2.01159E-05 6.18479E-12-2.69865E-13-2.16653E+00
 -1        63-1.21331E+02-1.00497E-13 1.17247E-04 6.27948E-12-3.53944E-13-2.16663E+00
 -1        64-1.47330E+02 1.33768E-13-2.32143E-02 6.35493E-12-2.07471E-14-2.15013E+00
 -1        65-1.38663E+02-1.66292E-13 3.98295E-03 6.37190E-12-1.52711E-14-2.16936E+00
 -1        66-1.55996E+02-2.65498E-14 1.35303E-01 6.32587E-12 1.86637E-13-2.26221E+00
 -1        67-1.64663E+02 9.62433E-16-7.88604E-01 5.39493E-12 2.04260E-13-1.60894E+00
 -1        70-3.17857E-13 6.22650E-14 1.58922E-11-1.13376E-13 4.66036E-12-2.72415E+00
 -1        71 1.77705E-13-1.99206E-13 1.69909E-12-4.24767E-14-5.75262E-12-3.51273E+00
 -1        72 4.99101E-13 6.22650E-14-1.42631E-11-2.14719E-13 4.51949E-12-2.72415E+00
 -1        73 1.51712E-13-1.99206E-13-8.35199E-12 8.29702E-14-5.55071E-12-3.51273E+00
 -1        75 3.50192E-13-6.59847E-13-4.58693E-12-2.18957E-13-4.08345E-12-2.07087E+00
 -1        76 3.08642E-14-6.59847E-13 1.88265E-12-1.17703E-13-3.47644E-12-2.07087E+00
 -1        78 8.69027E-13 6.26421E-13-3.11120E-13-2.61331E-13-1.41321E-12-2.18296E+00
 -1        79-4.29212E-13 6.26421E-13-4.60858E-12-3.33770E-14-3.39803E-12-2.18296E+00
 -1        81 1.48603E-13 1.47026E-13 2.51783E-12 1.25165E-12-1.53202E-12-2.16373E+00
 -1        82 5.75096E-13 1.47026E-13 2.41002E-12 9.73130E-13 1.25930E-13-2.16373E+00
 -1        84-2.20046E-12-5.36842E-13-4.84058E-12-7.73557E-13 3.83409E-12-2.16703E+00
 -1        85 3.26494E-12-5.36842E-13 4.96663E-12-8.10214E-13 4.41682E-12-2.16703E+00
 -1        86-8.17990E-12-7.25826E-13-1.71455E-12 8.23948E-13 5.17363E-13-2.16656E+00
 -1        87-5.60307E-12 1.41456E-13-2.12373E-12 2.29708E-13-1.48390E-12-2.16646E+00
 -1        90 8.80429E-12-7.25826E-13 4.61150E-12 8.06921E-13 2.42812E-14-2.16656E+00
 -1        91 6.30490E-12 1.41456E-13 1.74281E-12 2.80438E-13-4.16121E-12-2.16646E+00
 -1        93-1.10241E-11 5.76829E-13 2.19071E-12-4.19449E-13-8.28795E-13-2.16654E+00
 -1        94 1.14708E-11 5.76829E-13-9.36871E-13-1.02495E-13-1.21127E-12-2.16654E+00
 -1        95-1.25948E-11-4.02038E-13-2.01968E-12-1.04167E-13-9.77712E-13-2.16654E+00
 -1        96-1.28138E-11 2.09146E-13-5.44714E-12-1.78787E-13 3.41880E-13-2.16654E+00
 -1        99 1.26991E-11-4.02038E-13 1.16958E-12-1.19296E-13-5.43310E-13-2.16654E+00
 -1       100 1.29067E-11 2.09146E-13 4.09745E-12-4.40493E-13-4.03569E-13-2.16654E+00
 -1       101-1.15250E-11 1.70646E-13 1.05751E-13-1.78324E-13-4.99692E-13-2.16654E+00
 -1       102-1.16254E-11 1.99954E-13 2.55158E-12-2.26532E-13 3.89065E-13-2.16654E+00
 -1       105 1.21256E-11 1.70646E-13 1.24360E-12-2.48271E-13-3.33449E-13-2.16654E+00
 -1       106 1.21926E-11 1.99954E-13-3.68958E-12-7.86729E-14 1.67443E-13-2.16654E+00
 -1       108-1.21023E-11-8.77598E-14 6.92514E-13-1.61155E-14 2.26246E-13-2.16656E+00
 -1       109 1.22675E-11-8.77598E-14 1.44409E-12-7.64785E-14 8.19135E-14-2.16656E+00
 -1       110-1.29026E-11-6.03806E-14 6.94424E-13-3.58594E-14-1.62624E-13-2.16703E+00
 -1       111-1.25233E-11 3.56588E-14 4.74385E-13 2.24083E-14 2.59127E-13-2.16646E+00
 -1       114 1.32661E-11-6.03806E-14-9.40523E-14-7.18829E-15-2.98170E-13-2.16703E+00
 -1       115 1.27922E-11 3.56588E-14-9.77385E-13 1.55644E-14 3.86167E-13-2.16646E+00
 -1       116-1.37341E-11-3.28103E-14-1.94992E-13 6.74580E-14 9.65724E-14-2.18296E+00
 -1       117-1.33822E-11 6.74642E-14-6.38205E-13-6.87913E-14 2.24805E-13-2.16373E+00
 -1       120 1.39313E-11-3.28103E-14 1.41495E-13 5.25851E-14 5.11744E-14-2.18296E+00
 -1       121 1.36144E-11 6.74642E-14 5.94834E-13-7.13769E-14 2.62648E-13-2.16373E+00
 -1       123-1.40414E-11-2.15217E-15 9.46673E-14-3.99578E-14-2.94300E-13-2.07087E+00
 -1       124 1.41771E-11-2.15217E-15-2.04489E-14-4.88003E-14-2.47747E-13-2.07087E+00
 -1       126-1.43965E-11 6.33222E-15 4.56857E-14-1.98403E-14 1.00011E-12-2.72415E+00
 -1       127 1.45253E-11 6.33222E-15-2.76446E-14-1.12427E-14 1.00093E-12-2.72415E+00
 -1       129-1.45324E-11 3.56576E-22-7.54952E-15 7.40063E-12 4.12349E-16-4.68458E+01
 -1       130 1.46940E-11 3.56576E-22 9.76996E-15 7.39861E-12-1.62540E-16-4.68458E+01
 -1       133 8.66647E+00 3.25245E-12-7.88604E-01-2.13883E-12 1.28521E-12-1.60894E+00
 -1       134 4.33323E+00-8.43734E-13 4.59610E+00-1.68841E-12 7.29827E-12-8.20358E-01
 -1       135 8.66647E+00 3.25245E-12-7.88604E-01-2.67010E-12 6.63925E-13-1.60894E+00
 -1       136 4.33323E+00-8.43734E-13 4.59610E+00 3.60998E-13 6.76013E-12-8.20358E-01
 -1       138 1.73329E+01-2.92215E-12 1.35303E-01-5.46031E-12 1.88879E-12-2.26221E+00
 -1       139 1.73329E+01-2.92215E-12 1.35303E-01-5.68170E-12 4.92546E-12-2.26221E+00
 -1       141 2.59994E+01 2.18748E-12-2.32143E-02-6.32063E-12 3.79915E-12-2.15013E+00
 -1       142 2.59994E+01 2.18748E-12-2.32143E-02-5.83687E-12 3.54430E-12-2.15013E+00
 -1       144 3.46659E+01-8.30049E-13 3.98295E-03-9.40035E-12-1.61246E-13-2.16936E+00
 -1       145 3.46659E+01-8.30049E-13 3.98295E-03-9.87688E-12-4.46966E-13-2.16936E+00
 -1       147 4.33323E+01 1.65718E-13-6.83366E-04-9.56621E-12-3.88954E-12-2.16606E+00
 -1       148 4.33323E+01 1.65718E-13-6.83366E-04-9.77861E-12-2.96766E-12-2.16606E+00
 -1       149 6.06653E+01 5.46562E-13-2.01159E-05-9.46005E-12-2.79591E-12-2.16653E+00
 -1       150 5.19988E+01-1.70077E-12 1.17247E-04-1.07129E-11 2.32255E-12-2.16663E+00
 -1       153 6.06653E+01 5.46562E-13-2.01159E-05-8.91489E-12-1.68236E-13-2.16653E+00
 -1       154 5.19988E+01-1.70077E-12 1.17247E-04-1.06883E-11 3.55707E-12-2.16663E+00
 -1       156 6.93317E+01-4.58401E-14 3.44844E-06-7.58514E-12-3.44134E-12-2.16655E+00
 -1       157 6.93317E+01-4.58401E-14 3.44844E-06-7.83323E-12-1.76600E-12-2.16655E+00
 -1       158 8.66647E+01-1.27370E-13-2.00387E-13-6.91789E-12-1.20759E-13-2.16654E+00
 -1       159 7.79982E+01 4.76680E-13-5.74744E-07-7.60147E-12-1.45943E-13-2.16654E+00
 -1       162 8.66647E+01-1.27370E-13 1.82109E-12-6.87434E-12 5.80416E-13-2.16654E+00
 -1       163 7.79982E+01 4.76680E-13-5.74734E-07-7.64668E-12-9.59967E-13-2.16654E+00
 -1       164 1.03998E+02-3.02743E-13-3.44844E-06-5.52351E-12 6.04693E-14-2.16655E+00
 -1       165 9.53311E+01-3.91123E-13 5.74743E-07-7.01165E-12-7.18812E-13-2.16654E+00
 -1       168 1.03998E+02-3.02743E-13-3.44844E-06-5.32743E-12 1.89237E-13-2.16655E+00
 -1       169 9.53311E+01-3.91123E-13 5.74738E-07-7.04687E-12-4.14827E-13-2.16654E+00
 -1       171 1.12664E+02 4.61611E-13 2.01159E-05-6.13343E-12 1.75924E-13-2.16653E+00
 -1       172 1.12664E+02 4.61611E-13 2.01159E-05-5.98160E-12 1.17780E-13-2.16653E+00
 -1       173 1.29997E+02 1.22581E-13 6.83366E-04-5.97652E-12-6.05852E-13-2.16606E+00
 -1       174 1.21331E+02-1.12659E-13-1.17247E-04-6.05406E-12 7.04418E-13-2.16663E+00
 -1       177 1.29997E+02 1.22581E-13 6.83366E-04-5.93604E-12-6.69209E-13-2.16606E+00
 -1       178 1.21331E+02-1.12659E-13-1.17247E-04-6.11993E-12 6.52619E-13-2.16663E+00
 -1       179 1.47330E+02-3.14942E-15 2.32143E-02-6.52772E-12-2.46286E-13-2.15013E+00
 -1       180 1.38663E+02-7.59149E-14-3.98295E-03-6.32121E-12 2.48124E-14-2.16936E+00
 -1       183 1.47330E+02-3.14942E-15 2.32143E-02-6.53521E-12-2.74253E-13-2.15013E+00
 -1       184 1.38663E+02-7.59149E-14-3.98295E-03-6.29475E-12 2.03492E-13-2.16936E+00
 -1       186 1.55996E+02-1.05502E-14-1.35303E-01-6.20705E-12 6.26482E-14-2.26221E+00
 -1       187 1.55996E+02-1.05502E-14-1.35303E-01-6.19413E-12 4.15401E-14-2.26221E+00
 -1       189 1.64663E+02-9.29853E-15 7.88604E-01-5.33797E-12 1.68894E-13-1.60894E+00
 -1       190 1.64663E+02-9.29853E-15 7.88604E-01-5.34568E-12 1.69935E-13-1.60894E+00
 -1       192 1.68996E+02-2.68233E-21-4.59610E+00-5.83625E-12 3.84913E-12-4.41534E+01
 -1       193 1.68996E+02-2.68233E-21-4.59610E+00-5.83222E-12 3.84943E-12-4.41534E+01
 -3
    1PSTEP                         3           1           1          
  100CL  101 1.000000000         126                     0    1           1
 -4  TOSTRAIN    6    1
 -5  EXX         1    4    1    1
 -5  EYY         1    4    2    2
 -5  EZZ         1    4    3    3
 -5  EXY         1    4    1    2
 -5  EYZ         1    4    2    3
 -5  EZX         1    4    3    1