
                        S T E P       1


                                INCREMENT     1


 displacements (vx,vy,vz) for set N1 and time  0.1000000E-05

       100  1.644130E-14  8.713389E-02 -5.714252E-04

 internal energy density (elem, integ.pnt.,energy) for set EALL and time  0.1000000E-05

         1   1  3.153729E-01
         1   2  2.957844E-01
         1   3  2.826485E-01
         1   4  9.627088E-02
         1   5  8.935160E-02
         1   6  8.552615E-02
         1   7  5.935145E-03
         1   8  4.078215E-03
         1   9  4.039586E-03
         1  10  2.769433E-01
         1  11  2.780563E-01
         1  12  2.807795E-01
         1  13  8.682212E-02
         1  14  8.701738E-02
         1  15  8.810970E-02
         1  16  6.747842E-03
         1  17  6.983752E-03
         1  18  7.701246E-03
         1  19  2.928122E-01
         1  20  3.066981E-01
         1  21  3.224758E-01
         1  22  9.176166E-02
         1  23  9.599092E-02
         1  24  1.004403E-01
         1  25  6.982681E-03
         1  26  7.377947E-03
         1  27  6.782439E-03
         2   1  2.826485E-01
         2   2  2.957844E-01
         2   3  3.153729E-01
         2   4  8.552615E-02
         2   5  8.935160E-02
         2   6  9.627088E-02
         2   7  4.039586E-03
         2   8  4.078215E-03
         2   9  5.935145E-03
         2  10  2.807795E-01
         2  11  2.780563E-01
         2  12  2.769433E-01
         2  13  8.810970E-02
         2  14  8.701738E-02
         2  15  8.682212E-02
         2  16  7.701246E-03
         2  17  6.983752E-03
         2  18  6.747842E-03
         2  19  3.224758E-01
         2  20  3.066981E-01
         2  21  2.928122E-01
         2  22  1.004403E-01
         2  23  9.599092E-02
         2  24  9.176166E-02
         2  25  6.782439E-03
         2  26  7.377947E-03
         2  27  6.982681E-03
         3   1  6.025833E-03
         3   2  4.175200E-03
         3   3  4.135034E-03
         3   4  9.651800E-02
         3   5  8.963417E-02
         3   6  8.578941E-02
         3   7  3.150099E-01
         3   8  2.955442E-01
         3   9  2.823960E-01
         3  10  6.815818E-03
         3  11  7.059546E-03
         3  12  7.786316E-03
         3  13  8.733095E-02
         3  14  8.758115E-02
         3  15  8.870865E-02
         3  16  2.773674E-01
         3  17  2.785877E-01
         3  18  2.813704E-01
         3  19  6.969569E-03
         3  20  7.392482E-03
         3  21  6.827965E-03
         3  22  9.179581E-02
         3  23  9.615216E-02
         3  24  1.007417E-01
         3  25  2.926252E-01
         3  26  3.067346E-01
         3  27  3.227477E-01
         4   1  4.135034E-03
         4   2  4.175200E-03
         4   3  6.025833E-03
         4   4  8.578941E-02
         4   5  8.963417E-02
         4   6  9.651800E-02
         4   7  2.823960E-01
         4   8  2.955442E-01
         4   9  3.150099E-01
         4  10  7.786316E-03
         4  11  7.059546E-03
         4  12  6.815818E-03
         4  13  8.870865E-02
         4  14  8.758115E-02
         4  15  8.733095E-02
         4  16  2.813704E-01
         4  17  2.785877E-01
         4  18  2.773674E-01
         4  19  6.827965E-03
         4  20  7.392482E-03
         4  21  6.969569E-03
         4  22  1.007417E-01
         4  23  9.615216E-02
         4  24  9.179581E-02
         4  25  3.227477E-01
         4  26  3.067346E-01
         4  27  2.926252E-01
         5   1  2.611489E-01
         5   2  2.587940E-01
         5   3  2.552319E-01
         5   4  8.363854E-02
         5   5  8.290459E-02
         5   6  8.205383E-02
         5   7  6.475726E-03
         5   8  6.188891E-03
         5   9  6.284769E-03
         5  10  2.323574E-01
         5  11  2.319386E-01
         5  12  2.301111E-01
         5  13  7.400953E-02
         5  14  7.399360E-02
         5  15  7.370588E-02
         5  16  4.848713E-03
         5  17  4.632653E-03
         5  18  4.671066E-03
         5  19  2.060566E-01
         5  20  2.072103E-01
         5  21  2.070379E-01
         5  22  6.614265E-02
         5  23  6.653733E-02
         5  24  6.676473E-02
         5  25  5.299009E-03
         5  26  4.864601E-03
         5  27  4.820761E-03
         6   1  2.552319E-01
         6   2  2.587940E-01
         6   3  2.611489E-01
         6   4  8.205383E-02
         6   5  8.290459E-02
         6   6  8.363854E-02
         6   7  6.284769E-03
         6   8  6.188891E-03
         6   9  6.475726E-03
         6  10  2.301111E-01
         6  11  2.319386E-01
         6  12  2.323574E-01
         6  13  7.370588E-02
         6  14  7.399360E-02
         6  15  7.400953E-02
         6  16  4.671066E-03
         6  17  4.632653E-03
         6  18  4.848713E-03
         6  19  2.070379E-01
         6  20  2.072103E-01
         6  21  2.060566E-01
         6  22  6.676473E-02
         6  23  6.653733E-02
         6  24  6.614265E-02
         6  25  4.820761E-03
         6  26  4.864601E-03
         6  27  5.299009E-03
         7   1  6.535968E-03
         7   2  6.283669E-03
         7   3  6.384979E-03
         7   4  8.365692E-02
         7   5  8.300897E-02
         7   6  8.217563E-02
         7   7  2.608211E-01
         7   8  2.586112E-01
         7   9  2.550932E-01
         7  10  4.935833E-03
         7  11  4.745099E-03
         7  12  4.789580E-03
         7  13  7.426381E-02
         7  14  7.433393E-02
         7  15  7.406312E-02
         7  16  2.325181E-01
         7  17  2.322481E-01
         7  18  2.304567E-01
         7  19  5.301882E-03
         7  20  4.887051E-03
         7  21  4.846718E-03
         7  22  6.605278E-02
         7  23  6.653676E-02
         7  24  6.677955E-02
         7  25  2.056878E-01
         7  26  2.069957E-01
         7  27  2.068518E-01
         8   1  6.384979E-03
         8   2  6.283669E-03
         8   3  6.535968E-03
         8   4  8.217563E-02
         8   5  8.300897E-02
         8   6  8.365692E-02
         8   7  2.550932E-01
         8   8  2.586112E-01
         8   9  2.608211E-01
         8  10  4.789580E-03
         8  11  4.745099E-03
         8  12  4.935833E-03
         8  13  7.406312E-02
         8  14  7.433393E-02
         8  15  7.426381E-02
         8  16  2.304567E-01
         8  17  2.322481E-01
         8  18  2.325181E-01
         8  19  4.846718E-03
         8  20  4.887051E-03
         8  21  5.301882E-03
         8  22  6.677955E-02
         8  23  6.653676E-02
         8  24  6.605278E-02
         8  25  2.068518E-01
         8  26  2.069957E-01
         8  27  2.056878E-01
         9   1  1.869302E-01
         9   2  1.868524E-01
         9   3  1.870454E-01
         9   4  6.018439E-02
         9   5  5.995152E-02
         9   6  5.990177E-02
         9   7  4.811669E-03
         9   8  4.478488E-03
         9   9  4.317369E-03
         9  10  1.647671E-01
         9  11  1.646499E-01
         9  12  1.647540E-01
         9  13  5.281657E-02
         9  14  5.261191E-02
         9  15  5.254743E-02
         9  16  3.878961E-03
         9  17  3.605030E-03
         9  18  3.461272E-03
         9  19  1.446007E-01
         9  20  1.443919E-01
         9  21  1.444118E-01
         9  22  4.675752E-02
         9  23  4.649612E-02
         9  24  4.638737E-02
         9  25  4.101120E-03
         9  26  3.778158E-03
         9  27  3.597521E-03
        10   1  1.870454E-01
        10   2  1.868524E-01
        10   3  1.869302E-01
        10   4  5.990177E-02
        10   5  5.995152E-02
        10   6  6.018439E-02
        10   7  4.317369E-03
        10   8  4.478488E-03
        10   9  4.811669E-03
        10  10  1.647540E-01
        10  11  1.646499E-01
        10  12  1.647671E-01
        10  13  5.254743E-02
        10  14  5.261191E-02
        10  15  5.281657E-02
        10  16  3.461272E-03
        10  17  3.605030E-03
        10  18  3.878961E-03
        10  19  1.444118E-01
        10  20  1.443919E-01
        10  21  1.446007E-01
        10  22  4.638737E-02
        10  23  4.649612E-02
        10  24  4.675752E-02
        10  25  3.597521E-03
        10  26  3.778158E-03
        10  27  4.101120E-03
        11   1  4.816714E-03
        11   2  4.491921E-03
        11   3  4.335723E-03
        11   4  6.014922E-02
        11   5  5.996303E-02
        11   6  5.994110E-02
        11   7  1.865984E-01
        11   8  1.866041E-01
        11   9  1.868447E-01
        11  10  3.913886E-03
        11  11  3.648555E-03
        11  12  3.509899E-03
        11  13  5.293152E-02
        11  14  5.276934E-02
        11  15  5.272914E-02
        11  16  1.647464E-01
        11  17  1.647050E-01
        11  18  1.648503E-01
        11  19  4.088264E-03
        11  20  3.774171E-03
        11  21  3.598438E-03
        11  22  4.666911E-02
        11  23  4.644658E-02
        11  24  4.635856E-02
        11  25  1.442619E-01
        11  26  1.441212E-01
        11  27  1.441754E-01
        12   1  4.335723E-03
        12   2  4.491921E-03
        12   3  4.816714E-03
        12   4  5.994110E-02
        12   5  5.996303E-02
        12   6  6.014922E-02
        12   7  1.868447E-01
        12   8  1.866041E-01
        12   9  1.865984E-01
        12  10  3.509899E-03
        12  11  3.648555E-03
        12  12  3.913886E-03
        12  13  5.272914E-02
        12  14  5.276934E-02
        12  15  5.293152E-02
        12  16  1.648503E-01
        12  17  1.647050E-01
        12  18  1.647464E-01
        12  19  3.598438E-03
        12  20  3.774171E-03
        12  21  4.088264E-03
        12  22  4.635856E-02
        12  23  4.644658E-02
        12  24  4.666911E-02
        12  25  1.441754E-01
        12  26  1.441212E-01
        12  27  1.442619E-01
        13   1  1.300318E-01
        13   2  1.299305E-01
        13   3  1.298946E-01
        13   4  4.200558E-02
        13   5  4.181435E-02
        13   6  4.176027E-02
        13   7  3.828927E-03
        13   8  3.497085E-03
        13   9  3.365276E-03
        13  10  1.108954E-01
        13  11  1.108406E-01
        13  12  1.108158E-01
        13  13  3.560003E-02
        13  14  3.546110E-02
        13  15  3.542455E-02
        13  16  2.968470E-03
        13  17  2.694379E-03
        13  18  2.586723E-03
        13  19  9.373663E-02
        13  20  9.365266E-02
        13  21  9.363405E-02
        13  22  3.050363E-02
        13  23  3.031731E-02
        13  24  3.026914E-02
        13  25  3.280025E-03
        13  26  2.939464E-03
        13  27  2.802307E-03
        14   1  1.298946E-01
        14   2  1.299305E-01
        14   3  1.300318E-01
        14   4  4.176027E-02
        14   5  4.181435E-02
        14   6  4.200558E-02
        14   7  3.365276E-03
        14   8  3.497085E-03
        14   9  3.828927E-03
        14  10  1.108158E-01
        14  11  1.108406E-01
        14  12  1.108954E-01
        14  13  3.542455E-02
        14  14  3.546110E-02
        14  15  3.560003E-02
        14  16  2.586723E-03
        14  17  2.694379E-03
        14  18  2.968470E-03
        14  19  9.363405E-02
        14  20  9.365266E-02
        14  21  9.373663E-02
        14  22  3.026914E-02
        14  23  3.031731E-02
        14  24  3.050363E-02
        14  25  2.802307E-03
        14  26  2.939464E-03
        14  27  3.280025E-03
        15   1  3.815071E-03
        15   2  3.490564E-03
        15   3  3.362063E-03
        15   4  4.192091E-02
        15   5  4.175998E-02
        15   6  4.171993E-02
        15   7  1.297530E-01
        15   8  1.297058E-01
        15   9  1.296961E-01
        15  10  2.973307E-03
        15  11  2.705762E-03
        15  12  2.600635E-03
        15  13  3.559915E-02
        15  14  3.548747E-02
        15  15  3.546151E-02
        15  16  1.107895E-01
        15  17  1.107830E-01
        15  18  1.107777E-01
        15  19  3.260945E-03
        15  20  2.926083E-03
        15  21  2.790727E-03
        15  22  3.039186E-02
        15  23  3.023013E-02
        15  24  3.018957E-02
        15  25  9.345569E-02
        15  26  9.341496E-02
        15  27  9.340994E-02
        16   1  3.362063E-03
        16   2  3.490564E-03
        16   3  3.815071E-03
        16   4  4.171993E-02
        16   5  4.175998E-02
        16   6  4.192091E-02
        16   7  1.296961E-01
        16   8  1.297058E-01
        16   9  1.297530E-01
        16  10  2.600635E-03
        16  11  2.705762E-03
        16  12  2.973307E-03
        16  13  3.546151E-02
        16  14  3.548747E-02
        16  15  3.559915E-02
        16  16  1.107777E-01
        16  17  1.107830E-01
        16  18  1.107895E-01
        16  19  2.790727E-03
        16  20  2.926083E-03
        16  21  3.260945E-03
        16  22  3.018957E-02
        16  23  3.023013E-02
        16  24  3.039186E-02
        16  25  9.340994E-02
        16  26  9.341496E-02
        16  27  9.345569E-02
        17   1  8.194357E-02
        17   2  8.188747E-02
        17   3  8.186674E-02
        17   4  2.679933E-02
        17   5  2.662157E-02
        17   6  2.655742E-02
        17   7  3.092354E-03
        17   8  2.762457E-03
        17   9  2.615344E-03
        17  10  6.702516E-02
        17  11  6.700506E-02
        17  12  6.699298E-02
        17  13  2.173745E-02
        17  14  2.160726E-02
        17  15  2.156158E-02
        17  16  2.284407E-03
        17  17  2.014747E-03
        17  18  1.897662E-03
        17  19  5.395961E-02
        17  20  5.390573E-02
        17  21  5.389436E-02
        17  22  1.791698E-02
        17  23  1.773882E-02
        17  24  1.767864E-02
        17  25  2.631072E-03
        17  26  2.300664E-03
        17  27  2.155984E-03
        18   1  8.186674E-02
        18   2  8.188747E-02
        18   3  8.194357E-02
        18   4  2.655742E-02
        18   5  2.662157E-02
        18   6  2.679933E-02
        18   7  2.615344E-03
        18   8  2.762457E-03
        18   9  3.092354E-03
        18  10  6.699298E-02
        18  11  6.700506E-02
        18  12  6.702516E-02
        18  13  2.156158E-02
        18  14  2.160726E-02
        18  15  2.173745E-02
        18  16  1.897662E-03
        18  17  2.014747E-03
        18  18  2.284407E-03
        18  19  5.389436E-02
        18  20  5.390573E-02
        18  21  5.395961E-02
        18  22  1.767864E-02
        18  23  1.773882E-02
        18  24  1.791698E-02
        18  25  2.155984E-03
        18  26  2.300664E-03
        18  27  2.631072E-03
        19   1  3.074280E-03
        19   2  2.747281E-03
        19   3  2.601806E-03
        19   4  2.670411E-02
        19   5  2.653955E-02
        19   6  2.648325E-02
        19   7  8.170599E-02
        19   8  8.167265E-02
        19   9  8.166582E-02
        19  10  2.275083E-03
        19  11  2.007984E-03
        19  12  1.892125E-03
        19  13  2.168493E-02
        19  14  2.156629E-02
        19  15  2.152659E-02
        19  16  6.687937E-02
        19  17  6.687890E-02
        19  18  6.687722E-02
        19  19  2.611139E-03
        19  20  2.282899E-03
        19  21  2.138941E-03
        19  22  1.781585E-02
        19  23  1.764796E-02
        19  24  1.759217E-02
        19  25  5.374142E-02
        19  26  5.370469E-02
        19  27  5.370070E-02
        20   1  2.601806E-03
        20   2  2.747281E-03
        20   3  3.074280E-03
        20   4  2.648325E-02
        20   5  2.653955E-02
        20   6  2.670411E-02
        20   7  8.166582E-02
        20   8  8.167265E-02
        20   9  8.170599E-02
        20  10  1.892125E-03
        20  11  2.007984E-03
        20  12  2.275083E-03
        20  13  2.152659E-02
        20  14  2.156629E-02
        20  15  2.168493E-02
        20  16  6.687722E-02
        20  17  6.687890E-02
        20  18  6.687937E-02
        20  19  2.138941E-03
        20  20  2.282899E-03
        20  21  2.611139E-03
        20  22  1.759217E-02
        20  23  1.764796E-02
        20  24  1.781585E-02
        20  25  5.370070E-02
        20  26  5.370469E-02
        20  27  5.374142E-02
        21   1  4.521340E-02
        21   2  4.511606E-02
        21   3  4.514337E-02
        21   4  1.511197E-02
        21   5  1.492067E-02
        21   6  1.488790E-02
        21   7  2.497246E-03
        21   8  2.154985E-03
        21   9  2.015362E-03
        21  10  3.432187E-02
        21  11  3.424874E-02
        21  12  3.425444E-02
        21  13  1.133450E-02
        21  14  1.119036E-02
        21  15  1.116349E-02
        21  16  1.765165E-03
        21  17  1.486371E-03
        21  18  1.371505E-03
        21  19  2.523039E-02
        21  20  2.510923E-02
        21  21  2.509857E-02
        21  22  8.768053E-03
        21  23  8.573835E-03
        21  24  8.527783E-03
        21  25  2.182507E-03
        21  26  1.844825E-03
        21  27  1.699445E-03
        22   1  4.514337E-02
        22   2  4.511606E-02
        22   3  4.521340E-02
        22   4  1.488790E-02
        22   5  1.492067E-02
        22   6  1.511197E-02
        22   7  2.015362E-03
        22   8  2.154985E-03
        22   9  2.497246E-03
        22  10  3.425444E-02
        22  11  3.424874E-02
        22  12  3.432187E-02
        22  13  1.116349E-02
        22  14  1.119036E-02
        22  15  1.133450E-02
        22  16  1.371505E-03
        22  17  1.486371E-03
        22  18  1.765165E-03
        22  19  2.509857E-02
        22  20  2.510923E-02
        22  21  2.523039E-02
        22  22  8.527783E-03
        22  23  8.573835E-03
        22  24  8.768053E-03
        22  25  1.699445E-03
        22  26  1.844825E-03
        22  27  2.182507E-03
        23   1  2.478173E-03
        23   2  2.137282E-03
        23   3  1.998214E-03
        23   4  1.502371E-02
        23   5  1.483868E-02
        23   6  1.480740E-02
        23   7  4.502465E-02
        23   8  4.494087E-02
        23   9  4.497097E-02
        23  10  1.749289E-03
        23  11  1.472128E-03
        23  12  1.358185E-03
        23  13  1.126797E-02
        23  14  1.112889E-02
        23  15  1.110259E-02
        23  16  3.418094E-02
        23  17  3.411900E-02
        23  18  3.412568E-02
        23  19  2.162495E-03
        23  20  1.826695E-03
        23  21  1.683016E-03
        23  22  8.690221E-03
        23  23  8.499956E-03
        23  24  8.453957E-03
        23  25  2.507763E-02
        23  26  2.496545E-02
        23  27  2.495432E-02
        24   1  1.998214E-03
        24   2  2.137282E-03
        24   3  2.478173E-03
        24   4  1.480740E-02
        24   5  1.483868E-02
        24   6  1.502371E-02
        24   7  4.497097E-02
        24   8  4.494087E-02
        24   9  4.502465E-02
        24  10  1.358185E-03
        24  11  1.472128E-03
        24  12  1.749289E-03
        24  13  1.110259E-02
        24  14  1.112889E-02
        24  15  1.126797E-02
        24  16  3.412568E-02
        24  17  3.411900E-02
        24  18  3.418094E-02
        24  19  1.683016E-03
        24  20  1.826695E-03
        24  21  2.162495E-03
        24  22  8.453957E-03
        24  23  8.499956E-03
        24  24  8.690221E-03
        24  25  2.495432E-02
        24  26  2.496545E-02
        24  27  2.507763E-02
        25   1  1.921767E-02
        25   2  1.921841E-02
        25   3  1.915100E-02
        25   4  6.895872E-03
        25   5  6.760143E-03
        25   6  6.659753E-03
        25   7  2.064772E-03
        25   8  1.771045E-03
        25   9  1.617939E-03
        25  10  1.234492E-02
        25  11  1.238458E-02
        25  12  1.237969E-02
        25  13  4.400467E-03
        25  14  4.294355E-03
        25  15  4.226326E-03
        25  16  1.363980E-03
        25  17  1.118812E-03
        25  18  9.976062E-04
        25  19  7.279187E-03
        25  20  7.270338E-03
        25  21  7.298172E-03
        25  22  3.112707E-03
        25  23  2.940426E-03
        25  24  2.857168E-03
        25  25  1.811128E-03
        25  26  1.492813E-03
        25  27  1.324936E-03
        26   1  1.915100E-02
        26   2  1.921841E-02
        26   3  1.921767E-02
        26   4  6.659753E-03
        26   5  6.760143E-03
        26   6  6.895872E-03
        26   7  1.617939E-03
        26   8  1.771045E-03
        26   9  2.064772E-03
        26  10  1.237969E-02
        26  11  1.238458E-02
        26  12  1.234492E-02
        26  13  4.226326E-03
        26  14  4.294355E-03
        26  15  4.400467E-03
        26  16  9.976062E-04
        26  17  1.118812E-03
        26  18  1.363980E-03
        26  19  7.298172E-03
        26  20  7.270338E-03
        26  21  7.279187E-03
        26  22  2.857168E-03
        26  23  2.940426E-03
        26  24  3.112707E-03
        26  25  1.324936E-03
        26  26  1.492813E-03
        26  27  1.811128E-03
        27   1  2.049306E-03
        27   2  1.755468E-03
        27   3  1.603173E-03
        27   4  6.827234E-03
        27   5  6.689771E-03
        27   6  6.594788E-03
        27   7  1.910033E-02
        27   8  1.909115E-02
        27   9  1.903354E-02
        27  10  1.357137E-03
        27  11  1.110207E-03
        27  12  9.866487E-04
        27  13  4.346417E-03
        27  14  4.239322E-03
        27  15  4.174907E-03
        27  16  1.225446E-02
        27  17  1.228567E-02
        27  18  1.228777E-02
        27  19  1.813657E-03
        27  20  1.491942E-03
        27  21  1.317232E-03
        27  22  3.065824E-03
        27  23  2.894250E-03
        27  24  2.812454E-03
        27  25  7.198530E-03
        27  26  7.185434E-03
        27  27  7.218601E-03
        28   1  1.603173E-03
        28   2  1.755468E-03
        28   3  2.049306E-03
        28   4  6.594788E-03
        28   5  6.689771E-03
        28   6  6.827234E-03
        28   7  1.903354E-02
        28   8  1.909115E-02
        28   9  1.910033E-02
        28  10  9.866487E-04
        28  11  1.110207E-03
        28  12  1.357137E-03
        28  13  4.174907E-03
        28  14  4.239322E-03
        28  15  4.346417E-03
        28  16  1.228777E-02
        28  17  1.228567E-02
        28  18  1.225446E-02
        28  19  1.317232E-03
        28  20  1.491942E-03
        28  21  1.813657E-03
        28  22  2.812454E-03
        28  23  2.894250E-03
        28  24  3.065824E-03
        28  25  7.218601E-03
        28  26  7.185434E-03
        28  27  7.198530E-03
        29   1  4.134645E-03
        29   2  4.076718E-03
        29   3  4.228971E-03
        29   4  1.932917E-03
        29   5  1.741206E-03
        29   6  1.914912E-03
        29   7  2.035206E-03
        29   8  1.579432E-03
        29   9  1.519318E-03
        29  10  1.820477E-03
        29  11  1.539892E-03
        29  12  1.517011E-03
        29  13  1.065803E-03
        29  14  7.092922E-04
        29  15  7.020420E-04
        29  16  1.675502E-03
        29  17  1.037154E-03
        29  18  7.413089E-04
        29  19  2.387449E-03
        29  20  7.117075E-04
        29  21  5.857119E-04
        29  22  1.895621E-03
        29  23  6.494598E-04
        29  24  5.428622E-04
        29  25  2.572301E-03
        29  26  1.398909E-03
        29  27  8.990572E-04
        30   1  4.228971E-03
        30   2  4.076718E-03
        30   3  4.134645E-03
        30   4  1.914912E-03
        30   5  1.741206E-03
        30   6  1.932917E-03
        30   7  1.519318E-03
        30   8  1.579432E-03
        30   9  2.035206E-03
        30  10  1.517011E-03
        30  11  1.539892E-03
        30  12  1.820477E-03
        30  13  7.020420E-04
        30  14  7.092922E-04
        30  15  1.065803E-03
        30  16  7.413089E-04
        30  17  1.037154E-03
        30  18  1.675502E-03
        30  19  5.857119E-04
        30  20  7.117075E-04
        30  21  2.387449E-03
        30  22  5.428622E-04
        30  23  6.494598E-04
        30  24  1.895621E-03
        30  25  8.990572E-04
        30  26  1.398909E-03
        30  27  2.572301E-03
        31   1  2.034536E-03
        31   2  1.578377E-03
        31   3  1.514926E-03
        31   4  1.912578E-03
        31   5  1.724952E-03
        31   6  1.887818E-03
        31   7  4.068191E-03
        31   8  4.032356E-03
        31   9  4.165914E-03
        31  10  1.650165E-03
        31  11  1.020578E-03
        31  12  7.372097E-04
        31  13  1.048196E-03
        31  14  6.945089E-04
        31  15  6.877889E-04
        31  16  1.757058E-03
        31  17  1.499024E-03
        31  18  1.480052E-03
        31  19  2.535206E-03
        31  20  1.375960E-03
        31  21  8.962818E-04
        31  22  1.893830E-03
        31  23  6.446786E-04
        31  24  5.424571E-04
        31  25  2.361433E-03
        31  26  6.982713E-04
        31  27  5.865948E-04
        32   1  1.514926E-03
        32   2  1.578377E-03
        32   3  2.034536E-03
        32   4  1.887818E-03
        32   5  1.724952E-03
        32   6  1.912578E-03
        32   7  4.165914E-03
        32   8  4.032356E-03
        32   9  4.068191E-03
        32  10  7.372097E-04
        32  11  1.020578E-03
        32  12  1.650165E-03
        32  13  6.877889E-04
        32  14  6.945089E-04
        32  15  1.048196E-03
        32  16  1.480052E-03
        32  17  1.499024E-03
        32  18  1.757058E-03
        32  19  8.962818E-04
        32  20  1.375960E-03
        32  21  2.535206E-03
        32  22  5.424571E-04
        32  23  6.446786E-04
        32  24  1.893830E-03
        32  25  5.865948E-04
        32  26  6.982713E-04
        32  27  2.361433E-03

                        S T E P       2


                                INCREMENT     1


 displacements (vx,vy,vz) for set N1 and time  0.2000000E-05

       100  1.615967E-14  8.803134E-02 -5.832486E-04

 internal energy density (elem, integ.pnt.,energy) for set EALL and time  0.2000000E-05

         1   1  6.308394E-01
         1   2  5.916737E-01
         1   3  5.654048E-01
         1   4  1.925674E-01
         1   5  1.787378E-01
         1   6  1.710916E-01
         1   7  1.186513E-02
         1   8  8.159791E-03
         1   9  8.087799E-03
         1  10  5.538289E-01
         1  11  5.560626E-01
         1  12  5.615105E-01
         1  13  1.736305E-01
         1  14  1.740269E-01
         1  15  1.762138E-01
         1  16  1.350236E-02
         1  17  1.397927E-02
         1  18  1.541631E-02
         1  19  5.854291E-01
         1  20  6.132022E-01
         1  21  6.447523E-01
         1  22  1.834726E-01
         1  23  1.919324E-01
         1  24  2.008286E-01
         1  25  1.399012E-02
         1  26  1.477967E-02
         1  27  1.358443E-02
         2   1  5.654048E-01
         2   2  5.916737E-01
         2   3  6.308394E-01
         2   4  1.710916E-01
         2   5  1.787378E-01
         2   6  1.925674E-01
         2   7  8.087799E-03
         2   8  8.159791E-03
         2   9  1.186513E-02
         2  10  5.615105E-01
         2  11  5.560626E-01
         2  12  5.538289E-01
         2  13  1.762138E-01
         2  14  1.740269E-01
         2  15  1.736305E-01
         2  16  1.541631E-02
         2  17  1.397927E-02
         2  18  1.350236E-02
         2  19  6.447523E-01
         2  20  6.132022E-01
         2  21  5.854291E-01
         2  22  2.008286E-01
         2  23  1.919324E-01
         2  24  1.834726E-01
         2  25  1.358443E-02
         2  26  1.477967E-02
         2  27  1.399012E-02
         3   1  1.203436E-02
         3   2  8.342705E-03
         3   3  8.268433E-03
         3   4  1.930003E-01
         3   5  1.792466E-01
         3   6  1.715654E-01
         3   7  6.299968E-01
         3   8  5.910853E-01
         3   9  5.647985E-01
         3  10  1.362503E-02
         3  11  1.411769E-02
         3  12  1.557329E-02
         3  13  1.745890E-01
         3  14  1.750953E-01
         3  15  1.773523E-01
         3  16  5.545714E-01
         3  17  5.570196E-01
         3  18  5.625859E-01
         3  19  1.394861E-02
         3  20  1.479265E-02
         3  21  1.365843E-02
         3  22  1.834746E-01
         3  23  1.921852E-01
         3  24  2.013576E-01
         3  25  5.849401E-01
         3  26  6.131542E-01
         3  27  6.451676E-01
         4   1  8.268433E-03
         4   2  8.342705E-03
         4   3  1.203436E-02
         4   4  1.715654E-01
         4   5  1.792466E-01
         4   6  1.930003E-01
         4   7  5.647985E-01
         4   8  5.910853E-01
         4   9  6.299968E-01
         4  10  1.557329E-02
         4  11  1.411769E-02
         4  12  1.362503E-02
         4  13  1.773523E-01
         4  14  1.750953E-01
         4  15  1.745890E-01
         4  16  5.625859E-01
         4  17  5.570196E-01
         4  18  5.545714E-01
         4  19  1.365843E-02
         4  20  1.479265E-02
         4  21  1.394861E-02
         4  22  2.013576E-01
         4  23  1.921852E-01
         4  24  1.834746E-01
         4  25  6.451676E-01
         4  26  6.131542E-01
         4  27  5.849401E-01
         5   1  5.219907E-01
         5   2  5.172813E-01
         5   3  5.101610E-01
         5   4  1.672040E-01
         5   5  1.657338E-01
         5   6  1.640327E-01
         5   7  1.297243E-02
         5   8  1.239549E-02
         5   9  1.258676E-02
         5  10  4.642603E-01
         5  11  4.634215E-01
         5  12  4.597684E-01
         5  13  1.478956E-01
         5  14  1.478614E-01
         5  15  1.472860E-01
         5  16  9.710292E-03
         5  17  9.275084E-03
         5  18  9.351263E-03
         5  19  4.115329E-01
         5  20  4.138350E-01
         5  21  4.134892E-01
         5  22  1.321260E-01
         5  23  1.329111E-01
         5  24  1.333650E-01
         5  25  1.061732E-02
         5  26  9.743638E-03
         5  27  9.654684E-03
         6   1  5.101610E-01
         6   2  5.172813E-01
         6   3  5.219907E-01
         6   4  1.640327E-01
         6   5  1.657338E-01
         6   6  1.672040E-01
         6   7  1.258676E-02
         6   8  1.239549E-02
         6   9  1.297243E-02
         6  10  4.597684E-01
         6  11  4.634215E-01
         6  12  4.642603E-01
         6  13  1.472860E-01
         6  14  1.478614E-01