
                        S T E P       1


                                INCREMENT     1


 displacements (vx,vy,vz) for set NALL and time  0.1000000E+01

         1  0.000000E+00  0.000000E+00  0.000000E+00
         2 -4.434381E-03  0.000000E+00  0.000000E+00
         3 -4.434381E-03 -4.434381E-03  0.000000E+00
         4 -1.434687E-15 -4.434381E-03  0.000000E+00
         5  5.007651E-10  5.021167E-10  8.465561E-02
         6 -4.434381E-03  5.014426E-10  8.465561E-02
         7 -4.434381E-03 -4.434381E-03  8.465561E-02
         8  5.016720E-10 -4.434381E-03  8.465561E-02
         9 -1.108595E-03  1.074158E-14  0.000000E+00
        10 -2.217190E-03  4.362333E-14  0.000000E+00
        11 -3.325785E-03  1.060793E-14  0.000000E+00
        12 -4.434381E-03 -1.108595E-03  0.000000E+00
        13 -4.434381E-03 -2.217190E-03  0.000000E+00
        14 -4.434381E-03 -3.325785E-03  0.000000E+00
        15 -3.325785E-03 -4.434381E-03  0.000000E+00
        16 -2.217190E-03 -4.434381E-03  0.000000E+00
        17 -1.108595E-03 -4.434381E-03  0.000000E+00
        18  5.397222E-15 -3.325785E-03  0.000000E+00
        19  3.468005E-14 -2.217190E-03  0.000000E+00
        20  6.008603E-15 -1.108595E-03  0.000000E+00
        21 -1.108595E-03  5.026348E-10  8.465561E-02
        22 -2.217190E-03  4.697583E-10  8.465561E-02
        23 -3.325786E-03  5.030223E-10  8.465561E-02
        24 -4.434381E-03 -1.108595E-03  8.465561E-02
        25 -4.434381E-03 -2.217190E-03  8.465561E-02
        26 -4.434381E-03 -3.325786E-03  8.465561E-02
        27 -3.325786E-03 -4.434381E-03  8.465561E-02
        28 -2.217190E-03 -4.434381E-03  8.465561E-02
        29 -1.108595E-03 -4.434381E-03  8.465561E-02
        30  5.037455E-10 -3.325786E-03  8.465561E-02
        31  4.711591E-10 -2.217190E-03  8.465561E-02
        32  5.034649E-10 -1.108595E-03  8.465561E-02
        33 -4.434381E-03 -5.831830E-14  5.290975E-03
        34 -4.434381E-03 -1.657900E-13  1.058195E-02
        35 -4.434381E-03 -1.377874E-14  1.587293E-02
        36 -4.434381E-03  9.584417E-14  2.116390E-02
        37 -4.434381E-03  2.411571E-14  2.645488E-02
        38 -4.434381E-03 -8.272679E-13  3.174585E-02
        39 -4.434381E-03 -3.945999E-13  3.703683E-02
        40 -4.434381E-03  5.954267E-13  4.232780E-02
        41 -4.434381E-03  2.721955E-12  4.761878E-02
        42 -4.434381E-03 -6.366005E-12  5.290975E-02
        43 -4.434381E-03 -7.897447E-12  5.820073E-02
        44 -4.434381E-03  4.966585E-13  6.349170E-02
        45 -4.434381E-03  4.601154E-11  6.878268E-02
        46 -4.434380E-03 -4.751224E-11  7.407365E-02
        47 -4.434380E-03 -1.145034E-10  7.936463E-02
        48 -1.127154E-10 -1.135699E-10  7.936463E-02
        49 -4.631996E-11 -4.804028E-11  7.407365E-02
        50  4.665820E-11  4.591126E-11  6.878268E-02
        51  1.442459E-12  9.770535E-13  6.349170E-02
        52 -7.990813E-12 -8.005662E-12  5.820073E-02
        53 -6.015208E-12 -6.209434E-12  5.290975E-02
        54  2.732940E-12  2.646687E-12  4.761878E-02
        55  7.396815E-13  6.753091E-13  4.232780E-02
        56 -4.017738E-13 -4.104779E-13  3.703683E-02
        57 -7.843349E-13 -8.041328E-13  3.174585E-02
        58  1.777366E-14  1.319228E-14  2.645488E-02
        59  1.117446E-13  1.044210E-13  2.116390E-02
        60 -2.097713E-14 -1.850276E-14  1.587293E-02
        61 -1.636461E-13 -1.639041E-13  1.058195E-02
        62 -6.530793E-14 -6.236865E-14  5.290975E-03
        63 -4.434381E-03 -4.434381E-03  5.290975E-03
        64 -4.434381E-03 -4.434381E-03  1.058195E-02
        65 -4.434381E-03 -4.434381E-03  1.587293E-02
        66 -4.434381E-03 -4.434381E-03  2.116390E-02
        67 -4.434381E-03 -4.434381E-03  2.645488E-02
        68 -4.434381E-03 -4.434381E-03  3.174585E-02
        69 -4.434381E-03 -4.434381E-03  3.703683E-02
        70 -4.434381E-03 -4.434381E-03  4.232780E-02
        71 -4.434381E-03 -4.434381E-03  4.761878E-02
        72 -4.434381E-03 -4.434381E-03  5.290975E-02
        73 -4.434381E-03 -4.434381E-03  5.820073E-02
        74 -4.434381E-03 -4.434381E-03  6.349170E-02
        75 -4.434381E-03 -4.434381E-03  6.878268E-02
        76 -4.434380E-03 -4.434380E-03  7.407365E-02
        77 -4.434380E-03 -4.434380E-03  7.936463E-02
        78 -6.769650E-14 -4.434381E-03  5.290975E-03
        79 -1.639657E-13 -4.434381E-03  1.058195E-02
        80 -2.255807E-14 -4.434381E-03  1.587293E-02
        81  1.119122E-13 -4.434381E-03  2.116390E-02
        82  1.744879E-14 -4.434381E-03  2.645488E-02
        83 -7.792095E-13 -4.434381E-03  3.174585E-02
        84 -3.929527E-13 -4.434381E-03  3.703683E-02
        85  7.382909E-13 -4.434381E-03  4.232780E-02
        86  2.749211E-12 -4.434381E-03  4.761878E-02
        87 -6.045367E-12 -4.434381E-03  5.290975E-02
        88 -7.836323E-12 -4.434381E-03  5.820073E-02
        89  1.260871E-12 -4.434381E-03  6.349170E-02
        90  4.663437E-11 -4.434381E-03  6.878268E-02
        91 -4.733015E-11 -4.434380E-03  7.407365E-02
        92 -1.137225E-10 -4.434380E-03  7.936463E-02
        93 -2.217190E-03 -1.108595E-03  0.000000E+00
        94 -1.108595E-03 -2.217190E-03  0.000000E+00
        95 -2.217190E-03 -2.217190E-03  0.000000E+00
        96 -3.325785E-03 -2.217190E-03  0.000000E+00
        97 -2.217190E-03 -3.325785E-03  0.000000E+00
        98 -2.217190E-03 -1.108595E-03  8.465560E-02
        99 -1.108595E-03 -2.217190E-03  8.465560E-02
       100 -2.217190E-03 -2.217190E-03  8.465560E-02
       101 -3.325786E-03 -2.217190E-03  8.465560E-02
       102 -2.217190E-03 -3.325786E-03  8.465560E-02
       103 -2.217190E-03 -5.629998E-14  5.290975E-03
       104 -1.108595E-03 -1.505215E-13  1.058195E-02
       105 -2.217190E-03 -1.660723E-13  1.058195E-02
       106 -3.325785E-03 -1.514945E-13  1.058195E-02
       107 -2.217190E-03 -8.959147E-14  1.587293E-02
       108 -1.108595E-03  1.601361E-13  2.116390E-02
       109 -2.217190E-03  2.683020E-13  2.116390E-02
       110 -3.325785E-03  1.560661E-13  2.116390E-02
       111 -2.217190E-03  7.344828E-14  2.645488E-02
       112 -1.108595E-03 -6.590846E-13  3.174585E-02
       113 -2.217190E-03 -6.049639E-13  3.174585E-02
       114 -3.325785E-03 -6.722221E-13  3.174585E-02
       115 -2.217190E-03 -9.718054E-13  3.703683E-02
       116 -1.108595E-03  1.323092E-12  4.232780E-02
       117 -2.217190E-03  2.108913E-12  4.232780E-02
       118 -3.325785E-03  1.289463E-12  4.232780E-02
       119 -2.217190E-03  2.490611E-12  4.761878E-02
       120 -1.108595E-03 -4.343867E-12  5.290975E-02
       121 -2.217190E-03 -2.512953E-12  5.290975E-02
       122 -3.325785E-03 -4.450589E-12  5.290975E-02
       123 -2.217190E-03 -1.255745E-11  5.820073E-02
       124 -1.108595E-03  8.507243E-12  6.349170E-02
       125 -2.217190E-03  1.551852E-11  6.349170E-02
       126 -3.325785E-03  8.382797E-12  6.349170E-02
       127 -2.217190E-03  3.811211E-11  6.878268E-02
       128 -1.108595E-03 -1.516432E-11  7.407365E-02
       129 -2.217190E-03  2.084806E-11  7.407365E-02
       130 -3.325785E-03 -1.546882E-11  7.407365E-02
       131 -2.217190E-03 -2.066031E-10  7.936463E-02
       132 -4.434381E-03 -2.217190E-03  5.290975E-03
       133 -4.434381E-03 -1.108595E-03  1.058195E-02
       134 -4.434381E-03 -2.217190E-03  1.058195E-02
       135 -4.434381E-03 -3.325785E-03  1.058195E-02
       136 -4.434381E-03 -2.217190E-03  1.587293E-02
       137 -4.434381E-03 -1.108595E-03  2.116390E-02
       138 -4.434381E-03 -2.217190E-03  2.116390E-02
       139 -4.434381E-03 -3.325785E-03  2.116390E-02
       140 -4.434381E-03 -2.217190E-03  2.645488E-02
       141 -4.434381E-03 -1.108595E-03  3.174585E-02
       142 -4.434381E-03 -2.217190E-03  3.174585E-02
       143 -4.434381E-03 -3.325785E-03  3.174585E-02
       144 -4.434381E-03 -2.217190E-03  3.703683E-02
       145 -4.434381E-03 -1.108595E-03  4.232780E-02
       146 -4.434381E-03 -2.217190E-03  4.232780E-02
       147 -4.434381E-03 -3.325785E-03  4.232780E-02
       148 -4.434381E-03 -2.217190E-03  4.761878E-02
       149 -4.434381E-03 -1.108595E-03  5.290975E-02
       150 -4.434381E-03 -2.217190E-03  5.290975E-02
       151 -4.434381E-03 -3.325785E-03  5.290975E-02
       152 -4.434381E-03 -2.217190E-03  5.820073E-02
       153 -4.434381E-03 -1.108595E-03  6.349170E-02
       154 -4.434381E-03 -2.217190E-03  6.349170E-02
       155 -4.434381E-03 -3.325785E-03  6.349170E-02
       156 -4.434381E-03 -2.217190E-03  6.878268E-02
       157 -4.434381E-03 -1.108595E-03  7.407365E-02
       158 -4.434381E-03 -2.217190E-03  7.407365E-02
       159 -4.434381E-03 -3.325785E-03  7.407365E-02
       160 -4.434380E-03 -2.217190E-03  7.936463E-02
       161 -2.217190E-03 -4.434381E-03  5.290975E-03
       162 -3.325785E-03 -4.434381E-03  1.058195E-02
       163 -2.217190E-03 -4.434381E-03  1.058195E-02
       164 -1.108595E-03 -4.434381E-03  1.058195E-02
       165 -2.217190E-03 -4.434381E-03  1.587293E-02
       166 -3.325785E-03 -4.434381E-03  2.116390E-02
       167 -2.217190E-03 -4.434381E-03  2.116390E-02
       168 -1.108595E-03 -4.434381E-03  2.116390E-02
       169 -2.217190E-03 -4.434381E-03  2.645488E-02
       170 -3.325785E-03 -4.434381E-03  3.174585E-02
       171 -2.217190E-03 -4.434381E-03  3.174585E-02
       172 -1.108595E-03 -4.434381E-03  3.174585E-02
       173 -2.217190E-03 -4.434381E-03  3.703683E-02
       174 -3.325785E-03 -4.434381E-03  4.232780E-02
       175 -2.217190E-03 -4.434381E-03  4.232780E-02
       176 -1.108595E-03 -4.434381E-03  4.232780E-02
       177 -2.217190E-03 -4.434381E-03  4.761878E-02
       178 -3.325785E-03 -4.434381E-03  5.290975E-02
       179 -2.217190E-03 -4.434381E-03  5.290975E-02
       180 -1.108595E-03 -4.434381E-03  5.290975E-02
       181 -2.217190E-03 -4.434381E-03  5.820073E-02
       182 -3.325785E-03 -4.434381E-03  6.349170E-02
       183 -2.217190E-03 -4.434381E-03  6.349170E-02
       184 -1.108595E-03 -4.434381E-03  6.349170E-02
       185 -2.217190E-03 -4.434381E-03  6.878268E-02
       186 -3.325785E-03 -4.434381E-03  7.407365E-02
       187 -2.217190E-03 -4.434381E-03  7.407365E-02
       188 -1.108595E-03 -4.434381E-03  7.407365E-02
       189 -2.217190E-03 -4.434380E-03  7.936463E-02
       190 -5.844312E-14 -2.217190E-03  5.290975E-03
       191 -1.555008E-13 -3.325785E-03  1.058195E-02
       192 -1.763689E-13 -2.217190E-03  1.058195E-02
       193 -1.553043E-13 -1.108595E-03  1.058195E-02
       194 -8.702949E-14 -2.217190E-03  1.587293E-02
       195  1.576772E-13 -3.325785E-03  2.116390E-02
       196  2.561209E-13 -2.217190E-03  2.116390E-02
       197  1.574135E-13 -1.108595E-03  2.116390E-02
       198  8.794610E-14 -2.217190E-03  2.645488E-02
       199 -6.572152E-13 -3.325785E-03  3.174585E-02
       200 -6.264411E-13 -2.217190E-03  3.174585E-02
       201 -6.597217E-13 -1.108595E-03  3.174585E-02
       202 -9.207839E-13 -2.217190E-03  3.703683E-02
       203  1.345326E-12 -3.325785E-03  4.232780E-02
       204  2.085165E-12 -2.217190E-03  4.232780E-02
       205  1.346433E-12 -1.108595E-03  4.232780E-02
       206  2.627740E-12 -2.217190E-03  4.761878E-02
       207 -4.314060E-12 -3.325785E-03  5.290975E-02
       208 -2.595554E-12 -2.217190E-03  5.290975E-02
       209 -4.306832E-12 -1.108595E-03  5.290975E-02
       210 -1.219785E-11 -2.217190E-03  5.820073E-02
       211  8.734504E-12 -3.325785E-03  6.349170E-02
       212  1.554630E-11 -2.217190E-03  6.349170E-02
       213  8.867347E-12 -1.108595E-03  6.349170E-02
       214  3.910028E-11 -2.217190E-03  6.878268E-02
       215 -1.449889E-11 -3.325785E-03  7.407365E-02
       216  2.201693E-11 -2.217190E-03  7.407365E-02
       217 -1.462129E-11 -1.108595E-03  7.407365E-02
       218 -2.067072E-10 -2.217190E-03  7.936463E-02
       219 -2.217190E-03 -2.217190E-03  5.290975E-03
       220 -2.217190E-03 -1.108595E-03  1.058195E-02
       221 -1.108595E-03 -2.217190E-03  1.058195E-02
       222 -2.217190E-03 -2.217190E-03  1.058195E-02
       223 -3.325785E-03 -2.217190E-03  1.058195E-02
       224 -2.217190E-03 -3.325785E-03  1.058195E-02
       225 -2.217190E-03 -2.217190E-03  1.587293E-02
       226 -2.217190E-03 -1.108595E-03  2.116390E-02
       227 -1.108595E-03 -2.217190E-03  2.116390E-02
       228 -2.217190E-03 -2.217190E-03  2.116390E-02
       229 -3.325785E-03 -2.217190E-03  2.116390E-02
       230 -2.217190E-03 -3.325785E-03  2.116390E-02
       231 -2.217190E-03 -2.217190E-03  2.645488E-02
       232 -2.217190E-03 -1.108595E-03  3.174585E-02
       233 -1.108595E-03 -2.217190E-03  3.174585E-02
       234 -2.217190E-03 -2.217190E-03  3.174585E-02
       235 -3.325785E-03 -2.217190E-03  3.174585E-02
       236 -2.217190E-03 -3.325785E-03  3.174585E-02
       237 -2.217190E-03 -2.217190E-03  3.703683E-02
       238 -2.217190E-03 -1.108595E-03  4.232780E-02
       239 -1.108595E-03 -2.217190E-03  4.232780E-02
       240 -2.217190E-03 -2.217190E-03  4.232780E-02
       241 -3.325785E-03 -2.217190E-03  4.232780E-02
       242 -2.217190E-03 -3.325785E-03  4.232780E-02
       243 -2.217190E-03 -2.217190E-03  4.761878E-02
       244 -2.217190E-03 -1.108595E-03  5.290975E-02
       245 -1.108595E-03 -2.217190E-03  5.290975E-02
       246 -2.217190E-03 -2.217190E-03  5.290975E-02
       247 -3.325785E-03 -2.217190E-03  5.290975E-02
       248 -2.217190E-03 -3.325785E-03  5.290975E-02
       249 -2.217190E-03 -2.217190E-03  5.820073E-02
       250 -2.217190E-03 -1.108595E-03  6.349170E-02
       251 -1.108595E-03 -2.217190E-03  6.349170E-02
       252 -2.217190E-03 -2.217190E-03  6.349170E-02
       253 -3.325785E-03 -2.217190E-03  6.349170E-02
       254 -2.217190E-03 -3.325785E-03  6.349170E-02
       255 -2.217190E-03 -2.217190E-03  6.878268E-02
       256 -2.217190E-03 -1.108595E-03  7.407365E-02
       257 -1.108595E-03 -2.217190E-03  7.407365E-02
       258 -2.217190E-03 -2.217190E-03  7.407365E-02
       259 -3.325785E-03 -2.217190E-03  7.407365E-02
       260 -2.217190E-03 -3.325785E-03  7.407365E-02
       261 -2.217190E-03 -2.217190E-03  7.936463E-02

 stresses (elem, integ.pnt.,sxx,syy,szz,sxy,sxz,syz) for set EALL and time  0.1000000E+01

         1   1 -3.841492E-02 -3.841492E-02  9.725624E+02 -9.005333E-10  4.925135E-09  4.965141E-09
         1   2 -3.841494E-02 -3.841493E-02  9.725624E+02  8.006403E-11  5.129557E-09 -2.870942E-10
         1   3 -3.841493E-02 -3.841494E-02  9.725624E+02  1.108396E-10 -7.409199E-11  5.100185E-09
         1   4 -3.841493E-02 -3.841493E-02  9.725624E+02 -9.039707E-10  8.299947E-10  9.985881E-10
         1   5 -3.841495E-02 -3.841495E-02  9.725624E+02  5.366939E-09  3.488562E-09  3.415633E-09
         1   6 -3.841490E-02 -3.841492E-02  9.725624E+02  2.590837E-09 -7.010839E-10  1.130873E-09
         1   7 -3.841492E-02 -3.841490E-02  9.725624E+02  2.484475E-09  8.968786E-10 -6.342655E-10
         1   8 -3.841492E-02 -3.841492E-02  9.725624E+02  2.896656E-09 -2.088923E-09 -2.322744E-09
         2   1 -3.841494E-02 -3.841493E-02  9.725624E+02 -8.641573E-11 -5.071885E-09 -2.538820E-10
         2   2 -3.841492E-02 -3.841492E-02  9.725624E+02  9.276378E-10 -5.005032E-09  5.082239E-09
         2   3 -3.841493E-02 -3.841493E-02  9.725624E+02  8.876855E-10 -9.854330E-10  9.656681E-10
         2   4 -3.841493E-02 -3.841494E-02  9.725624E+02 -9.798516E-11  2.412569E-10  4.971527E-09
         2   5 -3.841490E-02 -3.841492E-02  9.725624E+02 -2.588533E-09  6.064604E-10  1.094213E-09
         2   6 -3.841495E-02 -3.841495E-02  9.725624E+02 -5.452056E-09 -3.366835E-09  3.268505E-09
         2   7 -3.841492E-02 -3.841492E-02  9.725624E+02 -2.846984E-09  2.262244E-09 -2.289747E-09
         2   8 -3.841492E-02 -3.841490E-02  9.725624E+02 -2.525703E-09 -1.083856E-09 -5.214929E-10
         3   1 -3.841493E-02 -3.841494E-02  9.725624E+02 -1.033186E-10 -8.535478E-11 -5.128808E-09
         3   2 -3.841493E-02 -3.841493E-02  9.725624E+02  9.132121E-10  8.349903E-10 -8.048189E-10
         3   3 -3.841492E-02 -3.841492E-02  9.725624E+02  8.860513E-10  4.893846E-09 -4.892894E-09
         3   4 -3.841494E-02 -3.841493E-02  9.725624E+02 -9.959995E-11  5.155449E-09  5.114357E-11
         3   5 -3.841492E-02 -3.841490E-02  9.725624E+02 -2.525984E-09  8.937642E-10  7.253998E-10
         3   6 -3.841492E-02 -3.841492E-02  9.725624E+02 -2.941680E-09 -2.098315E-09  2.071650E-09
         3   7 -3.841495E-02 -3.841495E-02  9.725624E+02 -5.299628E-09  3.503710E-09 -3.497931E-09
         3   8 -3.841490E-02 -3.841492E-02  9.725624E+02 -2.526978E-09 -7.183690E-10 -8.709835E-10
         4   1 -3.841493E-02 -3.841493E-02  9.725624E+02 -9.005051E-10 -9.915985E-10 -8.240289E-10
         4   2 -3.841493E-02 -3.841494E-02  9.725624E+02  9.322796E-11  2.503854E-10 -5.207116E-09
         4   3 -3.841494E-02 -3.841493E-02  9.725624E+02  1.144887E-10 -5.087940E-09  7.524523E-11
         4   4 -3.841492E-02 -3.841492E-02  9.725624E+02 -8.932360E-10 -4.958451E-09 -4.811342E-09
         4   5 -3.841492E-02 -3.841492E-02  9.725624E+02  2.917675E-09  2.268414E-09  2.097800E-09
         4   6 -3.841492E-02 -3.841490E-02  9.725624E+02  2.559393E-09 -1.103378E-09  8.080619E-10
         4   7 -3.841490E-02 -3.841492E-02  9.725624E+02  2.483200E-09  6.540361E-10 -8.895783E-10
         4   8 -3.841495E-02 -3.841495E-02  9.725624E+02  5.339496E-09 -3.413835E-09 -3.585702E-09
         5   1 -3.841491E-02 -3.841491E-02  9.725624E+02 -3.718525E-09 -9.726500E-09 -9.623842E-09
         5   2 -3.841492E-02 -3.841492E-02  9.725624E+02 -3.164179E-09 -1.257878E-08 -2.856412E-09
         5   3 -3.841492E-02 -3.841492E-02  9.725624E+02 -3.012090E-09 -2.535022E-09 -1.258314E-08
         5   4 -3.841493E-02 -3.841493E-02  9.725624E+02 -3.858302E-10 -4.399034E-09 -4.071950E-09
         5   5 -3.841486E-02 -3.841486E-02  9.725624E+02 -9.977037E-09 -1.438074E-08 -1.439199E-08
         5   6 -3.841498E-02 -3.841494E-02  9.725624E+02 -5.082306E-09  1.147716E-08 -2.932317E-09
         5   7 -3.841494E-02 -3.841498E-02  9.725624E+02 -5.286752E-09 -3.459287E-09  1.148678E-08
         5   8 -3.841495E-02 -3.841495E-02  9.725624E+02 -6.548434E-09  1.359844E-08  1.317635E-08
         6   1 -3.841492E-02 -3.841492E-02  9.725624E+02  3.165489E-09  1.265900E-08 -2.795731E-09
         6   2 -3.841491E-02 -3.841491E-02  9.725624E+02  3.871149E-09  9.568225E-09 -9.390353E-09
         6   3 -3.841493E-02 -3.841493E-02  9.725624E+02  3.110534E-10  4.170111E-09 -4.128830E-09
         6   4 -3.841492E-02 -3.841492E-02  9.725624E+02  3.096150E-09  2.822636E-09 -1.277051E-08
         6   5 -3.841498E-02 -3.841494E-02  9.725624E+02  5.105276E-09 -1.158510E-08 -3.055848E-09
         6   6 -3.841486E-02 -3.841486E-02  9.725624E+02  9.696948E-09  1.453628E-08 -1.480537E-08
         6   7 -3.841495E-02 -3.841495E-02  9.725624E+02  6.663840E-09 -1.319812E-08  1.324935E-08
         6   8 -3.841494E-02 -3.841498E-02  9.725624E+02  5.127654E-09  3.014836E-09  1.183450E-08
         7   1 -3.841492E-02 -3.841492E-02  9.725624E+02  3.086979E-09 -2.530431E-09  1.252132E-08
         7   2 -3.841493E-02 -3.841493E-02  9.725624E+02  4.506893E-10 -4.380365E-09  4.424471E-09
         7   3 -3.841491E-02 -3.841491E-02  9.725624E+02  3.624025E-09 -9.721534E-09  9.703336E-09
         7   4 -3.841492E-02 -3.841492E-02  9.725624E+02  3.068975E-09 -1.251567E-08  2.485911E-09
         7   5 -3.841494E-02 -3.841498E-02  9.725624E+02  5.186442E-09 -3.418367E-09 -1.145046E-08
         7   6 -3.841494E-02 -3.841494E-02  9.725624E+02  6.447286E-09  1.360161E-08 -1.368585E-08
         7   7 -3.841486E-02 -3.841486E-02  9.725624E+02  1.009360E-08 -1.431199E-08  1.434467E-08
         7   8 -3.841498E-02 -3.841494E-02  9.725624E+02  5.223267E-09  1.141139E-08  3.503351E-09
         8   1 -3.841493E-02 -3.841493E-02  9.725624E+02 -4.298960E-10  4.142279E-09  4.378118E-09
         8   2 -3.841492E-02 -3.841492E-02  9.725624E+02 -3.184550E-09  2.832122E-09  1.235713E-08
         8   3 -3.841492E-02 -3.841492E-02  9.725624E+02 -2.996213E-09  1.257663E-08  2.521311E-09
         8   4 -3.841491E-02 -3.841491E-02  9.725624E+02 -3.676121E-09  9.615746E-09  9.829146E-09
         8   5 -3.841495E-02 -3.841494E-02  9.725624E+02 -6.497184E-09 -1.317603E-08 -1.361914E-08
         8   6 -3.841494E-02 -3.841498E-02  9.725624E+02 -4.919299E-09  2.979771E-09 -1.118272E-08
         8   7 -3.841498E-02 -3.841494E-02  9.725624E+02 -5.379434E-09 -1.149454E-08  3.433367E-09
         8   8 -3.841486E-02 -3.841486E-02  9.725624E+02 -1.005415E-08  1.440682E-08  1.409352E-08
         9   1 -3.841497E-02 -3.841497E-02  9.725624E+02  3.416656E-09  3.063089E-08  3.067796E-08
         9   2 -3.841494E-02 -3.841492E-02  9.725624E+02  3.389975E-09  3.065944E-08  2.239659E-09
         9   3 -3.841492E-02 -3.841494E-02  9.725624E+02  3.745890E-09  3.021367E-09  3.053865E-08
         9   4 -3.841492E-02 -3.841492E-02  9.725624E+02 -1.500889E-10  6.258113E-09  6.878327E-09
         9   5 -3.841508E-02 -3.841508E-02  9.725624E+02  3.861085E-08  4.040354E-08  4.004617E-08
         9   6 -3.841480E-02 -3.841490E-02  9.725624E+02  2.507764E-08 -5.301314E-08  3.323164E-08
         9   7 -3.841489E-02 -3.841481E-02  9.725624E+02  2.433807E-08  3.214477E-08 -5.260952E-08
         9   8 -3.841488E-02 -3.841488E-02  9.725624E+02  2.141397E-08 -4.194584E-08 -4.313156E-08
        10   1 -3.841494E-02 -3.841492E-02  9.725624E+02 -3.410613E-09 -3.038382E-08  2.361638E-09
        10   2 -3.841497E-02 -3.841497E-02  9.725624E+02 -2.991578E-09 -3.095513E-08  3.124778E-08
        10   3 -3.841491E-02 -3.841491E-02  9.725624E+02 -9.748594E-11 -6.851298E-09  6.738281E-09
        10   4 -3.841492E-02 -3.841494E-02  9.725624E+02 -3.543987E-09 -2.437981E-09  3.001248E-08
        10   5 -3.841480E-02 -3.841489E-02  9.725624E+02 -2.517137E-08  5.248308E-08  3.300565E-08
        10   6 -3.841508E-02 -3.841508E-02  9.725624E+02 -3.932244E-08 -3.968315E-08  3.924260E-08
        10   7 -3.841488E-02 -3.841488E-02  9.725624E+02 -2.100010E-08  4.275441E-08 -4.294614E-08
        10   8 -3.841489E-02 -3.841480E-02  9.725624E+02 -2.462603E-08 -3.295498E-08 -5.198189E-08
        11   1 -3.841492E-02 -3.841494E-02  9.725624E+02 -3.595568E-09  3.015935E-09 -3.053631E-08
        11   2 -3.841492E-02 -3.841492E-02  9.725624E+02  2.991071E-10  6.257673E-09 -6.181929E-09
        11   3 -3.841497E-02 -3.841497E-02  9.725624E+02 -3.644002E-09  3.062041E-08 -3.056318E-08
        11   4 -3.841494E-02 -3.841492E-02  9.725624E+02 -3.616270E-09  3.065690E-08 -3.109177E-09
        11   5 -3.841489E-02 -3.841481E-02  9.725624E+02 -2.474879E-08  3.203606E-08  5.304103E-08
        11   6 -3.841487E-02 -3.841487E-02  9.725624E+02 -2.182254E-08 -4.199119E-08  4.184141E-08
        11   7 -3.841508E-02 -3.841508E-02  9.725624E+02 -3.814174E-08  4.023876E-08 -4.031115E-08
        11   8 -3.841481E-02 -3.841489E-02  9.725624E+02 -2.467525E-08 -5.293709E-08 -3.201509E-08
        12   1 -3.841492E-02 -3.841492E-02  9.725624E+02 -2.059742E-10 -6.904465E-09 -6.251438E-09
        12   2 -3.841492E-02 -3.841494E-02  9.725624E+02  3.328440E-09 -2.384891E-09 -3.088607E-08
        12   3 -3.841494E-02 -3.841492E-02  9.725624E+02  3.876968E-09 -3.052077E-08 -2.992835E-09
        12   4 -3.841497E-02 -3.841497E-02  9.725624E+02  3.541078E-09 -3.068402E-08 -3.017397E-08
        12   5 -3.841488E-02 -3.841488E-02  9.725624E+02  2.170240E-08  4.279040E-08  4.200161E-08
        12   6 -3.841490E-02 -3.841481E-02  9.725624E+02  2.483288E-08 -3.310388E-08  5.345945E-08
        12   7 -3.841481E-02 -3.841489E-02  9.725624E+02  2.434442E-08  5.280294E-08 -3.210434E-08
        12   8 -3.841508E-02 -3.841508E-02  9.725624E+02  3.844158E-08 -4.002966E-08 -4.076947E-08
        13   1 -3.841481E-02 -3.841481E-02  9.725624E+02 -3.310704E-08 -5.702285E-08 -5.659365E-08
        13   2 -3.841487E-02 -3.841489E-02  9.725624E+02 -2.377823E-08 -6.567762E-08 -2.855445E-08
        13   3 -3.841489E-02 -3.841487E-02  9.725624E+02 -2.273702E-08 -2.677562E-08 -6.550910E-08
        13   4 -3.841495E-02 -3.841495E-02  9.725624E+02 -5.797454E-09 -2.030944E-08 -1.839742E-08
        13   5 -3.841452E-02 -3.841452E-02  9.725624E+02 -3.505076E-08 -2.002394E-07 -1.998400E-07
        13   6 -3.841519E-02 -3.841508E-02  9.725624E+02 -2.957550E-08  1.813901E-07 -7.948096E-08
        13   7 -3.841508E-02 -3.841520E-02  9.725624E+02 -3.112383E-08 -8.236022E-08  1.810075E-07
        13   8 -3.841497E-02 -3.841497E-02  9.725624E+02 -4.070173E-08  1.682800E-07  1.656481E-07
        14   1 -3.841487E-02 -3.841489E-02  9.725624E+02  2.384094E-08  6.604882E-08 -2.807460E-08
        14   2 -3.841481E-02 -3.841481E-02  9.725624E+02  3.423466E-08  5.615479E-08 -5.505603E-08
        14   3 -3.841495E-02 -3.841495E-02  9.725624E+02  5.319492E-09  1.909023E-08 -1.878348E-08
        14   4 -3.841489E-02 -3.841488E-02  9.725624E+02  2.333438E-08  2.841685E-08 -6.674205E-08
        14   5 -3.841519E-02 -3.841508E-02  9.725624E+02  2.996823E-08 -1.820364E-07 -8.024382E-08
        14   6 -3.841452E-02 -3.841452E-02  9.725624E+02  3.305491E-08  2.011122E-07 -2.027144E-07
        14   7 -3.841498E-02 -3.841498E-02  9.725624E+02  4.150500E-08 -1.657818E-07  1.661877E-07
        14   8 -3.841508E-02 -3.841519E-02  9.725624E+02  2.988900E-08  7.959714E-08  1.834652E-07
        15   1 -3.841489E-02 -3.841487E-02  9.725624E+02  2.338527E-08 -2.667725E-08  6.541864E-08
        15   2 -3.841496E-02 -3.841496E-02  9.725624E+02  6.302268E-09 -2.024176E-08  2.053303E-08
        15   3 -3.841481E-02 -3.841481E-02  9.725624E+02  3.267652E-08 -5.665561E-08  5.660137E-08
        15   4 -3.841487E-02 -3.841489E-02  9.725624E+02  2.321377E-08 -6.544826E-08  2.644564E-08
        15   5 -3.841508E-02 -3.841520E-02  9.725624E+02  3.014316E-08 -8.216565E-08 -1.813747E-07
        15   6 -3.841496E-02 -3.841496E-02  9.725624E+02  4.016020E-08  1.684616E-07 -1.689143E-07
        15   7 -3.841452E-02 -3.841452E-02  9.725624E+02  3.506166E-08 -2.004157E-07  2.006342E-07
        15   8 -3.841520E-02 -3.841508E-02  9.725624E+02  3.033249E-08  1.811332E-07  8.258501E-08
        16   1 -3.841495E-02 -3.841495E-02  9.725624E+02 -6.209797E-09  1.886075E-08  2.016358E-08
        16   2 -3.841489E-02 -3.841487E-02  9.725624E+02 -2.396539E-08  2.845345E-08  6.428658E-08
        16   3 -3.841487E-02 -3.841489E-02  9.725624E+02 -2.273885E-08  6.534954E-08  2.669390E-08
        16   4 -3.841481E-02 -3.841481E-02  9.725624E+02 -3.288048E-08  5.643232E-08  5.757526E-08
        16   5 -3.841497E-02 -3.841497E-02  9.725624E+02 -4.044545E-08 -1.655232E-07 -1.684204E-07
        16   6 -3.841509E-02 -3.841520E-02  9.725624E+02 -2.796668E-08  7.933938E-08 -1.790001E-07
        16   7 -3.841520E-02 -3.841508E-02  9.725624E+02 -3.146542E-08 -1.809938E-07  8.193514E-08
        16   8 -3.841452E-02 -3.841452E-02  9.725624E+02 -3.537068E-08  2.001972E-07  1.985386E-07
        17   1 -3.841534E-02 -3.841534E-02  9.725624E+02 -1.949713E-08  2.203068E-07  2.204975E-07
        17   2 -3.841506E-02 -3.841494E-02  9.725624E+02 -8.282194E-09  1.621515E-07  7.008313E-10
        17   3 -3.841494E-02 -3.841505E-02  9.725624E+02 -5.904302E-09  4.615916E-09  1.613040E-07
        17   4 -3.841497E-02 -3.841497E-02  9.725624E+02 -1.247738E-08 -4.566123E-09 -4.664899E-10
        17   5 -3.841571E-02 -3.841570E-02  9.725624E+02  2.651084E-07  5.227640E-07  5.193990E-07
        17   6 -3.841446E-02 -3.841466E-02  9.725624E+02  2.181449E-07 -6.801957E-07  4.631310E-07
        17   7 -3.841465E-02 -3.841446E-02  9.725624E+02  2.139971E-07  4.572930E-07 -6.781114E-07
        17   8 -3.841483E-02 -3.841484E-02  9.725624E+02  1.644370E-07 -4.599122E-07 -4.686667E-07
        18   1 -3.841506E-02 -3.841495E-02  9.725624E+02  8.117465E-09 -1.595343E-07  1.276016E-09
        18   2 -3.841533E-02 -3.841533E-02  9.725624E+02  2.243461E-08 -2.226399E-07  2.245781E-07
        18   3 -3.841497E-02 -3.841497E-02  9.725624E+02  1.061219E-08  9.524543E-10 -1.444181E-09
        18   4 -3.841495E-02 -3.841507E-02  9.725624E+02  7.154692E-09 -1.505657E-09  1.575224E-07
        18   5 -3.841444E-02 -3.841464E-02  9.725624E+02 -2.190818E-07  6.754931E-07  4.610908E-07
        18   6 -3.841572E-02 -3.841571E-02  9.725624E+02 -2.694292E-07 -5.191374E-07  5.144511E-07
        18   7 -3.841484E-02 -3.841484E-02  9.725624E+02 -1.598386E-07  4.643695E-07 -4.670790E-07
        18   8 -3.841465E-02 -3.841444E-02  9.725624E+02 -2.140318E-07 -4.612290E-07 -6.715830E-07
        19   1 -3.841495E-02 -3.841505E-02  9.725624E+02  7.496517E-09  5.056230E-09 -1.610275E-07
        19   2 -3.841498E-02 -3.841498E-02  9.725624E+02  1.365009E-08 -4.759348E-09  5.118999E-09
        19   3 -3.841533E-02 -3.841533E-02  9.725624E+02  1.904450E-08  2.215359E-07 -2.211022E-07
        19   4 -3.841505E-02 -3.841495E-02  9.725624E+02  7.423786E-09  1.613793E-07 -5.241008E-09
        19   5 -3.841465E-02 -3.841446E-02  9.725624E+02 -2.173797E-07  4.557677E-07  6.804285E-07
        19   6 -3.841481E-02 -3.841481E-02  9.725624E+02 -1.672009E-07 -4.603988E-07  4.588095E-07
        19   7 -3.841571E-02 -3.841571E-02  9.725624E+02 -2.631136E-07  5.199711E-07 -5.204531E-07
        19   8 -3.841445E-02 -3.841464E-02  9.725624E+02 -2.166131E-07 -6.787477E-07 -4.559270E-07
        20   1 -3.841497E-02 -3.841497E-02  9.725624E+02 -1.318596E-08  3.056511E-10  4.756187E-09
        20   2 -3.841494E-02 -3.841505E-02  9.725624E+02 -9.064973E-09 -1.068474E-09 -1.637285E-07
        20   3 -3.841505E-02 -3.841494E-02  9.725624E+02 -5.583935E-09 -1.615821E-07 -4.368877E-09
        20   4 -3.841534E-02 -3.841534E-02  9.725624E+02 -1.925153E-08 -2.206530E-07 -2.183573E-07
        20   5 -3.841484E-02 -3.841483E-02  9.725624E+02  1.683024E-07  4.653217E-07  4.603000E-07
        20   6 -3.841466E-02 -3.841447E-02  9.725624E+02  2.159696E-07 -4.616108E-07  6.833049E-07
        20   7 -3.841446E-02 -3.841465E-02  9.725624E+02  2.151766E-07  6.799302E-07 -4.561089E-07
        20   8 -3.841570E-02 -3.841571E-02  9.725624E+02  2.652264E-07 -5.196870E-07 -5.229958E-07