
                        S T E P       1


                                INCREMENT     1


 displacements (vx,vy,vz) for set LOAD and time  0.1000000E+01

         5 -4.087404E-05  8.768820E-02  8.180549E-03
         6  4.087405E-05  8.768820E-02  8.180549E-03
         7 -4.087404E-05  8.768820E-02 -8.180549E-03
         8  4.087405E-05  8.768820E-02 -8.180549E-03
        22  2.916942E-12  8.759457E-02  8.155627E-03
        25  2.913299E-12  8.757620E-02 -2.783211E-13
        28  2.911761E-12  8.759457E-02 -8.155627E-03
        31  2.911547E-12  8.757620E-02  2.656757E-13
       100  2.914112E-12  8.755606E-02 -4.639249E-15
