    1C
    1UModel: beam     Date: 10-Mar-1998                                 
    1UUSER                                                              
    1UDATE              23.february.2024                                
    1UTIME              09:48:12                                        
    1UHOST                                                              
    1UPGM               CalculiX                                        
    1UVERSION           Version DEVELOPMENT                             
    1UCOMPILETIME       Thu 22 Feb 2024 11:51:52 AM CET                    
    1UDIR                                                               
    1UDBN                                                               
    1UMAT    1EL                                                        
    2C                            78                                     1
 -1         1 0.00000E+00 0.00000E+00 0.00000E+00
 -1         2 1.00000E+00 0.00000E+00 0.00000E+00
 -1         3 1.00000E+00 1.00000E+00 0.00000E+00
 -1         4 0.00000E+00 1.00000E+00 0.00000E+00
 -1         5 0.00000E+00 0.00000E+00 8.00000E+00
 -1         6 1.00000E+00 0.00000E+00 8.00000E+00
 -1        10 5.00000E-01 0.00000E+00 0.00000E+00
 -1        13 1.00000E+00 5.00000E-01 0.00000E+00
 -1        16 5.00000E-01 1.00000E+00 0.00000E+00
 -1        19 0.00000E+00 5.00000E-01 0.00000E+00
 -1        22 5.00000E-01 0.00000E+00 8.00000E+00
 -1        25 1.00000E+00 5.00000E-01 8.00000E+00
 -1        31 0.00000E+00 5.00000E-01 8.00000E+00
 -1        34 1.00000E+00 0.00000E+00 1.00000E+00
 -1        36 1.00000E+00 0.00000E+00 2.00000E+00
 -1        38 1.00000E+00 0.00000E+00 3.00000E+00
 -1        40 1.00000E+00 0.00000E+00 4.00000E+00
 -1        42 1.00000E+00 0.00000E+00 5.00000E+00
 -1        44 1.00000E+00 0.00000E+00 6.00000E+00
 -1        46 1.00000E+00 0.00000E+00 7.00000E+00
 -1        49 0.00000E+00 0.00000E+00 7.00000E+00
 -1        51 0.00000E+00 0.00000E+00 6.00000E+00
 -1        53 0.00000E+00 0.00000E+00 5.00000E+00
 -1        55 0.00000E+00 0.00000E+00 4.00000E+00
 -1        57 0.00000E+00 0.00000E+00 3.00000E+00
 -1        59 0.00000E+00 0.00000E+00 2.00000E+00
 -1        61 0.00000E+00 0.00000E+00 1.00000E+00
 -1        64 1.00000E+00 1.00000E+00 1.00000E+00
 -1        66 1.00000E+00 1.00000E+00 2.00000E+00
 -1        68 1.00000E+00 1.00000E+00 3.00000E+00
 -1        70 1.00000E+00 1.00000E+00 4.00000E+00
 -1        72 1.00000E+00 1.00000E+00 5.00000E+00
 -1        74 1.00000E+00 1.00000E+00 6.00000E+00
 -1        76 1.00000E+00 1.00000E+00 7.00000E+00
 -1        79 0.00000E+00 1.00000E+00 1.00000E+00
 -1        81 0.00000E+00 1.00000E+00 2.00000E+00
 -1        83 0.00000E+00 1.00000E+00 3.00000E+00
 -1        85 0.00000E+00 1.00000E+00 4.00000E+00
 -1        87 0.00000E+00 1.00000E+00 5.00000E+00
 -1        89 0.00000E+00 1.00000E+00 6.00000E+00
 -1        91 0.00000E+00 1.00000E+00 7.00000E+00
 -1        95 5.00000E-01 5.00000E-01 0.00000E+00
 -1       100 5.00000E-01 5.00000E-01 8.00000E+00
 -1       105 5.00000E-01 0.00000E+00 1.00000E+00
 -1       109 5.00000E-01 0.00000E+00 2.00000E+00
 -1       113 5.00000E-01 0.00000E+00 3.00000E+00
 -1       117 5.00000E-01 0.00000E+00 4.00000E+00
 -1       121 5.00000E-01 0.00000E+00 5.00000E+00
 -1       125 5.00000E-01 0.00000E+00 6.00000E+00
 -1       129 5.00000E-01 0.00000E+00 7.00000E+00
 -1       134 1.00000E+00 5.00000E-01 1.00000E+00
 -1       138 1.00000E+00 5.00000E-01 2.00000E+00
 -1       142 1.00000E+00 5.00000E-01 3.00000E+00
 -1       146 1.00000E+00 5.00000E-01 4.00000E+00
 -1       150 1.00000E+00 5.00000E-01 5.00000E+00
 -1       154 1.00000E+00 5.00000E-01 6.00000E+00
 -1       158 1.00000E+00 5.00000E-01 7.00000E+00
 -1       163 5.00000E-01 1.00000E+00 1.00000E+00
 -1       167 5.00000E-01 1.00000E+00 2.00000E+00
 -1       171 5.00000E-01 1.00000E+00 3.00000E+00
 -1       175 5.00000E-01 1.00000E+00 4.00000E+00
 -1       179 5.00000E-01 1.00000E+00 5.00000E+00
 -1       183 5.00000E-01 1.00000E+00 6.00000E+00
 -1       187 5.00000E-01 1.00000E+00 7.00000E+00
 -1       192 0.00000E+00 5.00000E-01 1.00000E+00
 -1       196 0.00000E+00 5.00000E-01 2.00000E+00
 -1       200 0.00000E+00 5.00000E-01 3.00000E+00
 -1       204 0.00000E+00 5.00000E-01 4.00000E+00
 -1       208 0.00000E+00 5.00000E-01 5.00000E+00
 -1       212 0.00000E+00 5.00000E-01 6.00000E+00
 -1       216 0.00000E+00 5.00000E-01 7.00000E+00
 -1       222 5.00000E-01 5.00000E-01 1.00000E+00
 -1       228 5.00000E-01 5.00000E-01 2.00000E+00
 -1       234 5.00000E-01 5.00000E-01 3.00000E+00
 -1       240 5.00000E-01 5.00000E-01 4.00000E+00
 -1       246 5.00000E-01 5.00000E-01 5.00000E+00
 -1       252 5.00000E-01 5.00000E-01 6.00000E+00
 -1       258 5.00000E-01 5.00000E-01 7.00000E+00
 -3
    3C                            30                                     1
 -1         1    1    0    1
 -2         1        10        95        19        61       105       222       192
 -1         2    1    0    1
 -2        10         2        13        95       105        34       134       222
 -1         3    1    0    1
 -2        19        95        16         4       192       222       163        79
 -1         4    1    0    1
 -2        95        13         3        16       222       134        64       163
 -1         5    1    0    1
 -2        61       105       222       192        59       109       228       196
 -1         6    1    0    1
 -2       105        34       134       222       109        36       138       228
 -1         7    1    0    1
 -2       192       222       163        79       196       228       167        81
 -1         8    1    0    1
 -2       222       134        64       163       228       138        66       167
 -1         9    1    0    1
 -2        59       109       228       196        57       113       234       200
 -1        10    1    0    1
 -2       109        36       138       228       113        38       142       234
 -1        11    1    0    1
 -2       196       228       167        81       200       234       171        83
 -1        12    1    0    1
 -2       228       138        66       167       234       142        68       171
 -1        13    1    0    1
 -2        57       113       234       200        55       117       240       204
 -1        14    1    0    1
 -2       113        38       142       234       117        40       146       240
 -1        15    1    0    1
 -2       200       234       171        83       204       240       175        85
 -1        16    1    0    1
 -2       234       142        68       171       240       146        70       175
 -1        17    1    0    1
 -2        55       117       240       204        53       121       246       208
 -1        18    1    0    1
 -2       117        40       146       240       121        42       150       246
 -1        19    1    0    1
 -2       204       240       175        85       208       246       179        87
 -1        20    1    0    1
 -2       240       146        70       175       246       150        72       179
 -1        21    1    0    1
 -2        53       121       246       208        51       125       252       212
 -1        22    1    0    1
 -2       121        42       150       246       125        44       154       252
 -1        23    1    0    1
 -2       208       246       179        87       212       252       183        89
 -1        24    1    0    1
 -2       246       150        72       179       252       154        74       183
 -1        25    1    0    1
 -2        51       125       252       212        49       129       258       216
 -1        26    1    0    1
 -2       125        44       154       252       129        46       158       258
 -1        27    1    0    1
 -2       212       252       183        89       216       258       187        91
 -1        28    1    0    1
 -2       252       154        74       183       258       158        76       187
 -1        29    1    0    1
 -2        49       129       258       216         5        22       100        31
 -1        30    1    0    1
 -2       129        46       158       258        22         6        25       100
 -3
    1PSTEP                         1           1           1          
  100CL  101 1.000000000          78                     0    1           1
 -4  DISP        4    1
 -5  D1          1    2    1    0
 -5  D2          1    2    2    0
 -5  D3          1    2    3    0
 -5  ALL         1    2    0    0    1ALL
 -1         1 0.00000E+00 0.00000E+00 0.00000E+00
 -1         2 0.00000E+00 0.00000E+00 0.00000E+00
 -1         3 0.00000E+00 0.00000E+00 0.00000E+00
 -1         4 0.00000E+00 0.00000E+00 0.00000E+00
 -1         5-1.67209E-01-2.65496E+00 3.23803E+00
 -1         6 1.67209E-01-2.65496E+00 3.23803E+00
 -1        10 0.00000E+00 0.00000E+00 0.00000E+00
 -1        13 0.00000E+00 0.00000E+00 0.00000E+00
 -1        16 0.00000E+00 0.00000E+00 0.00000E+00
 -1        19 0.00000E+00 0.00000E+00 0.00000E+00
 -1        22 6.25271E-13-2.94113E+00 2.70811E+00
 -1        25-2.25984E-01-2.76867E+00 4.37564E+00
 -1        31 2.25984E-01-2.76867E+00 4.37564E+00
 -1        34-8.24188E-02 8.24630E-02 4.35578E-01
 -1        36-7.00334E-02 6.98913E-02 9.05974E-01
 -1        38-7.14072E-02 7.14349E-02 1.38482E+00
 -1        40-7.08968E-02 7.39554E-02 1.86084E+00
 -1        42-7.81618E-02 5.59464E-02 2.33141E+00
 -1        44-4.28992E-02 1.29623E-01 2.85251E+00
 -1        46-9.57305E-02 6.24436E-03 3.05817E+00
 -1        49 9.57305E-02 6.24436E-03 3.05817E+00
 -1        51 4.28992E-02 1.29623E-01 2.85251E+00
 -1        53 7.81618E-02 5.59464E-02 2.33141E+00
 -1        55 7.08968E-02 7.39554E-02 1.86084E+00
 -1        57 7.14072E-02 7.14349E-02 1.38482E+00
 -1        59 7.00334E-02 6.98913E-02 9.05974E-01
 -1        61 8.24188E-02 8.24630E-02 4.35578E-01
 -1        64-8.24249E-02-8.24635E-02 4.35571E-01
 -1        66-7.00017E-02-6.98782E-02 9.05996E-01
 -1        68-7.15462E-02-7.14634E-02 1.38475E+00
 -1        70-7.03886E-02-7.37990E-02 1.86096E+00
 -1        72-7.93567E-02-5.67122E-02 2.33161E+00
 -1        74-4.51564E-02-1.24953E-01 2.84984E+00
 -1        76-4.02148E-02-3.56872E-02 3.06551E+00
 -1        79 8.24249E-02-8.24635E-02 4.35571E-01
 -1        81 7.00017E-02-6.98782E-02 9.05996E-01
 -1        83 7.15462E-02-7.14634E-02 1.38475E+00
 -1        85 7.03886E-02-7.37990E-02 1.86096E+00
 -1        87 7.93567E-02-5.67122E-02 2.33161E+00
 -1        89 4.51564E-02-1.24953E-01 2.84984E+00
 -1        91 4.02148E-02-3.56872E-02 3.06551E+00
 -1        95 0.00000E+00 0.00000E+00 0.00000E+00
 -1       100 6.37935E-13-3.25597E+00 6.58931E+00
 -1       105 1.28424E-14 8.24742E-02 4.24440E-01
 -1       109 5.45198E-14 7.05084E-02 9.08989E-01
 -1       113 1.19392E-13 7.14182E-02 1.38458E+00
 -1       117 2.04130E-13 7.16084E-02 1.85874E+00
 -1       121 3.02565E-13 6.89211E-02 2.34080E+00
 -1       125 4.08812E-13 8.22303E-02 2.82155E+00
 -1       129 5.17794E-13 8.69106E-02 3.16330E+00
 -1       134-8.24657E-02-1.21548E-06 4.24443E-01
 -1       138-7.05406E-02 1.45207E-05 9.09100E-01
 -1       142-7.13806E-02-5.89685E-05 1.38369E+00
 -1       146-7.08297E-02 2.78545E-04 1.86266E+00
 -1       150-7.66417E-02-1.11740E-03 2.33348E+00
 -1       154-3.79178E-02 4.41131E-03 2.78030E+00
 -1       158-2.55296E-01-1.83169E-02 3.64965E+00
 -1       163 1.63900E-14-8.24577E-02 4.24441E-01
 -1       167 6.14393E-14-7.05688E-02 9.08981E-01
 -1       171 1.29840E-13-7.11372E-02 1.38458E+00
 -1       175 2.17160E-13-7.28141E-02 1.85895E+00
 -1       179 3.18001E-13-6.33171E-02 2.33873E+00
 -1       183 4.26380E-13-1.09238E-01 2.83546E+00
 -1       187 5.36932E-13 4.89117E-02 3.08816E+00
 -1       192 8.24657E-02-1.21548E-06 4.24443E-01
 -1       196 7.05406E-02 1.45207E-05 9.09100E-01
 -1       200 7.13806E-02-5.89685E-05 1.38369E+00
 -1       204 7.08297E-02 2.78545E-04 1.86266E+00
 -1       208 7.66417E-02-1.11740E-03 2.33348E+00
 -1       212 3.79178E-02 4.41131E-03 2.78030E+00
 -1       216 2.55296E-01-1.83169E-02 3.64965E+00
 -1       222 1.58545E-14-8.44276E-07 4.13209E-01
 -1       228 5.88279E-14 7.83568E-06 9.12104E-01
 -1       234 1.25400E-13-1.35248E-05 1.38371E+00
 -1       240 2.11062E-13 3.87751E-05 1.86059E+00
 -1       246 3.10525E-13 3.47901E-05 2.33784E+00
 -1       252 4.17620E-13-1.26997E-03 2.79715E+00
 -1       258 5.27485E-13 1.36636E-02 3.40762E+00
 -3
    1PSTEP                         2           1           2          
    1PGM                1.000000E+00                                  
    1PGK                6.238980E+11                                  
    1PHID                         -1                                  
    1PSUBC                         0                                  
    1PMODE                         1                                  
  100CL  102 125712.0529          78                     2    2MODAL      1
 -4  DISP        4    1
 -5  D1          1    2    1    0
 -5  D2          1    2    2    0
 -5  D3          1    2    3    0
 -5  ALL         1    2    0    0    1ALL
 -1         1 0.00000E+00 0.00000E+00 0.00000E+00
 -1         2 0.00000E+00 0.00000E+00 0.00000E+00
 -1         3 0.00000E+00 0.00000E+00 0.00000E+00
 -1         4 0.00000E+00 0.00000E+00 0.00000E+00
 -1         5 5.97074E+03 1.77237E+01 2.65143E+00
 -1         6 5.97074E+03-1.77237E+01-2.65143E+00
 -1        10 0.00000E+00 0.00000E+00 0.00000E+00
 -1        13 0.00000E+00 0.00000E+00 0.00000E+00
 -1        16 0.00000E+00 0.00000E+00 0.00000E+00
 -1        19 0.00000E+00 0.00000E+00 0.00000E+00
 -1        22 5.96645E+03 3.76108E-09-2.57520E-10
 -1        25 6.07028E+03 7.96499E+00 1.04057E+01
 -1        31 6.07028E+03-7.96499E+00-1.04057E+01
 -1        34 9.44922E+02-6.80235E+01-2.70769E+02
 -1        36 2.12980E+03-3.82042E+00-3.36127E+02
 -1        38 3.28855E+03 3.81447E+00-3.11636E+02
 -1        40 4.29102E+03 6.82626E+00-2.61747E+02
 -1        42 5.09634E+03 8.72926E+00-1.93987E+02
 -1        44 5.64495E+03 1.35074E+01-1.42518E+02
 -1        46 6.08008E+03 9.62138E+00 1.58413E+00
 -1        49 6.08008E+03-9.62138E+00-1.58413E+00
 -1        51 5.64495E+03-1.35074E+01 1.42518E+02
 -1        53 5.09634E+03-8.72926E+00 1.93987E+02
 -1        55 4.29102E+03-6.82626E+00 2.61747E+02
 -1        57 3.28855E+03-3.81447E+00 3.11636E+02
 -1        59 2.12980E+03 3.82042E+00 3.36127E+02
 -1        61 9.44922E+02 6.80235E+01 2.70769E+02
 -1        64 9.49916E+02 6.30190E+01-2.70763E+02
 -1        66 2.13923E+03-5.55877E+00-3.36156E+02
 -1        68 3.30192E+03-1.74254E+01-3.11478E+02
 -1        70 4.30856E+03-2.35141E+01-2.62594E+02
 -1        72 5.11674E+03-3.01042E+01-1.91288E+02
 -1        74 5.66352E+03-3.40245E+01-1.35182E+02
 -1        76 6.07752E+03-1.32054E+02-8.05249E+01
 -1        79 9.49916E+02-6.30190E+01 2.70763E+02
 -1        81 2.13923E+03 5.55877E+00 3.36156E+02
 -1        83 3.30192E+03 1.74254E+01 3.11478E+02
 -1        85 4.30856E+03 2.35141E+01 2.62594E+02
 -1        87 5.11674E+03 3.01042E+01 1.91288E+02
 -1        89 5.66352E+03 3.40245E+01 1.35182E+02
 -1        91 6.07752E+03 1.32054E+02 8.05249E+01
 -1        95 0.00000E+00 0.00000E+00 0.00000E+00
 -1       100 6.02100E+03 3.76770E-09-2.56584E-10
 -1       105 9.00554E+02 6.08327E-10 1.54033E-10
 -1       109 2.13706E+03 1.34431E-09 1.59840E-10
 -1       113 3.29197E+03 2.07034E-09 9.14327E-11
 -1       117 4.29923E+03 2.70053E-09 3.57901E-12
 -1       121 5.10344E+03 3.20987E-09-8.74452E-11
 -1       125 5.65656E+03 3.55835E-09-1.75885E-10
 -1       129 6.09191E+03 3.76082E-09-2.63995E-10
 -1       134 9.72324E+02-2.48593E+00-2.71153E+02
 -1       138 2.13828E+03-4.70693E+00-3.39778E+02
 -1       142 3.28898E+03-6.72373E+00-3.11715E+02
 -1       146 4.29447E+03-8.78269E+00-2.62397E+02
 -1       150 5.08965E+03-8.53998E+00-1.95906E+02
 -1       154 5.65979E+03-1.97954E+01-1.28870E+02
 -1       158 5.91560E+03-1.84724E+01-3.28877E+01
 -1       163 9.05531E+02 6.13589E-10-1.89662E-10
 -1       167 2.14645E+03 1.34535E-09-2.73888E-10
 -1       171 3.30548E+03 2.06817E-09-3.09747E-10
 -1       175 4.31623E+03 2.70030E-09-3.34455E-10
 -1       179 5.12594E+03 3.20573E-09-3.48801E-10
 -1       183 5.67311E+03 3.56478E-09-3.27230E-10
 -1       187 6.07697E+03 3.70714E-09-3.37100E-10
 -1       192 9.72324E+02 2.48593E+00 2.71153E+02
 -1       196 2.13828E+03 4.70693E+00 3.39778E+02
 -1       200 3.28898E+03 6.72373E+00 3.11715E+02
 -1       204 4.29447E+03 8.78269E+00 2.62397E+02
 -1       208 5.08965E+03 8.53998E+00 1.95906E+02
 -1       212 5.65979E+03 1.97954E+01 1.28870E+02
 -1       216 5.91560E+03 1.84724E+01 3.28877E+01
 -1       222 9.28100E+02 5.83351E-10-1.95993E-11
 -1       228 2.14531E+03 1.34934E-09-5.81367E-11
 -1       234 3.29357E+03 2.07182E-09-1.09791E-10
 -1       240 4.30014E+03 2.70693E-09-1.65249E-10
 -1       246 5.10400E+03 3.21154E-09-2.16666E-10
 -1       252 5.66006E+03 3.56867E-09-2.56948E-10
 -1       258 5.97301E+03 3.75469E-09-2.68233E-10
 -3
    1PSTEP                         3           1           2          
    1PGM                1.000000E+00                                  
    1PGK                6.257240E+11                                  
    1PHID                         -1                                  
    1PSUBC                         0                                  
    1PMODE                         2                                  
  100CL  103 125895.8856          78                     2    3MODAL      1
 -4  DISP        4    1
 -5  D1          1    2    1    0
 -5  D2          1    2    2    0
 -5  D3          1    2    3    0
 -5  ALL         1    2    0    0    1ALL
 -1         1 0.00000E+00 0.00000E+00 0.00000E+00
 -1         2 0.00000E+00 0.00000E+00 0.00000E+00
 -1         3 0.00000E+00 0.00000E+00 0.00000E+00
 -1         4 0.00000E+00 0.00000E+00 0.00000E+00
 -1         5 1.43983E+01 5.96967E+03 2.64495E+01
 -1         6-1.43983E+01 5.96967E+03 2.64495E+01
 -1        10 0.00000E+00 0.00000E+00 0.00000E+00
 -1        13 0.00000E+00 0.00000E+00 0.00000E+00
 -1        16 0.00000E+00 0.00000E+00 0.00000E+00
 -1        19 0.00000E+00 0.00000E+00 0.00000E+00
 -1        22-3.72789E-09 5.97463E+03 3.12640E+01
 -1        25 5.34174E+00 5.98348E+03 3.44195E+01
 -1        31-5.34174E+00 5.98348E+03 3.44195E+01
 -1        34-6.57751E+01 9.50865E+02 2.71785E+02
 -1        36 8.69369E-01 2.14203E+03 3.37592E+02
 -1        38 1.06322E+01 3.30666E+03 3.12718E+02
 -1        40 1.58415E+01 4.31344E+03 2.60832E+02
 -1        42 1.88779E+01 5.11831E+03 2.04037E+02
 -1        44 1.73048E+01 5.67591E+03 1.04049E+02
 -1        46 5.75279E+01 5.97525E+03 3.81659E+01
 -1        49-5.75279E+01 5.97525E+03 3.81659E+01
 -1        51-1.73048E+01 5.67591E+03 1.04049E+02
 -1        53-1.88779E+01 5.11831E+03 2.04037E+02
 -1        55-1.58415E+01 4.31344E+03 2.60832E+02
 -1        57-1.06322E+01 3.30666E+03 3.12718E+02
 -1        59-8.69369E-01 2.14203E+03 3.37592E+02
 -1        61 6.57751E+01 9.50865E+02 2.71785E+02
 -1        64 6.57135E+01 9.50796E+02-2.71572E+02
 -1        66-9.41562E-01 2.14200E+03-3.37166E+02
 -1        68-1.06301E+01 3.30650E+03-3.12056E+02
 -1        70-1.59796E+01 4.31361E+03-2.59998E+02
 -1        72-1.94958E+01 5.11841E+03-2.03085E+02
 -1        74-1.34384E+01 5.67491E+03-1.01491E+02
 -1        76-3.25028E+01 5.92448E+03-5.79230E+01
 -1        79-6.57135E+01 9.50796E+02-2.71572E+02
 -1        81 9.41562E-01 2.14200E+03-3.37166E+02
 -1        83 1.06301E+01 3.30650E+03-3.12056E+02
 -1        85 1.59796E+01 4.31361E+03-2.59998E+02
 -1        87 1.94958E+01 5.11841E+03-2.03085E+02
 -1        89 1.34384E+01 5.67491E+03-1.01491E+02
 -1        91 3.25028E+01 5.92448E+03-5.79230E+01
 -1        95 0.00000E+00 0.00000E+00 0.00000E+00
 -1       100-3.77255E-09 5.98917E+03 3.31629E+01
 -1       105-5.49813E-10 9.75834E+02 2.72208E+02
 -1       109-1.31366E-09 2.14581E+03 3.41124E+02
 -1       113-2.02987E-09 3.30069E+03 3.13024E+02
 -1       117-2.65860E-09 4.30562E+03 2.62212E+02
 -1       121-3.17072E-09 5.11052E+03 1.99232E+02
 -1       125-3.52582E-09 5.66412E+03 1.18667E+02
 -1       129-3.79757E-09 5.96721E+03 2.18755E+01
 -1       134-3.19867E-02 9.06313E+02 1.07699E-01
 -1       138-2.98732E-02 2.14934E+03 2.04063E-01
 -1       142-5.10639E-03 3.30961E+03 3.63252E-01
 -1       146-1.77083E-01 4.32388E+03 3.17319E-01
 -1       150 6.26110E-01 5.12111E+03 8.61446E-01
 -1       154-1.06929E+00 5.69651E+03-1.85301E+00
 -1       158-2.90879E+00 5.96404E+03 9.00516E+00
 -1       163-5.87224E-10 9.75772E+02-2.72008E+02
 -1       167-1.38466E-09 2.14575E+03-3.40653E+02
 -1       171-2.12256E-09 3.30062E+03-3.12517E+02
 -1       175-2.75951E-09 4.30567E+03-2.60882E+02
 -1       179-3.26225E-09 5.10959E+03-2.00001E+02
 -1       183-3.58568E-09 5.66889E+03-1.08127E+02
 -1       187-3.84038E-09 5.90682E+03-7.68842E+01
 -1       192 3.19867E-02 9.06313E+02 1.07699E-01
 -1       196 2.98732E-02 2.14934E+03 2.04063E-01
 -1       200 5.10638E-03 3.30961E+03 3.63252E-01
 -1       204 1.77083E-01 4.32388E+03 3.17319E-01
 -1       208-6.26110E-01 5.12111E+03 8.61446E-01
 -1       212 1.06929E+00 5.69651E+03-1.85301E+00
 -1       216 2.90879E+00 5.96404E+03 9.00516E+00
 -1       222-5.84468E-10 9.31435E+02 1.05086E-01
 -1       228-1.35102E-09 2.15291E+03 2.15107E-01
 -1       234-2.07346E-09 3.30462E+03 3.13230E-01
 -1       240-2.70536E-09 4.31456E+03 4.73490E-01
 -1       246-3.20916E-09 5.11599E+03 5.46055E-01
 -1       252-3.55393E-09 5.67766E+03-1.69042E+00
 -1       258-3.74663E-09 5.96357E+03 1.03021E+01
 -3
    1PSTEP                         4           1           2          
    1PGM                1.000000E+00                                  
    1PGK                3.182538E+12                                  
    1PHID                         -1                                  
    1PSUBC                         0                                  
    1PMODE                         3                                  
  100CL  104 283927.1601          78                     2    4MODAL      1
 -4  DISP        4    1
 -5  D1          1    2    1    0
 -5  D2          1    2    2    0
 -5  D3          1    2    3    0
 -5  ALL         1    2    0    0    1ALL
 -1         1 0.00000E+00 0.00000E+00 0.00000E+00
 -1         2 0.00000E+00 0.00000E+00 0.00000E+00
 -1         3 0.00000E+00 0.00000E+00 0.00000E+00
 -1         4 0.00000E+00 0.00000E+00 0.00000E+00
 -1         5-9.34196E+00 5.93196E+01 6.01714E+03
 -1         6 9.34196E+00 5.93196E+01 6.01714E+03
 -1        10 0.00000E+00 0.00000E+00 0.00000E+00
 -1        13 0.00000E+00 0.00000E+00 0.00000E+00
 -1        16 0.00000E+00 0.00000E+00 0.00000E+00
 -1        19 0.00000E+00 0.00000E+00 0.00000E+00
 -1        22-8.80272E-12 3.40164E+01 6.02415E+03
 -1        25 2.90060E+01 1.36011E+02 6.01587E+03
 -1        31-2.90060E+01 1.36011E+02 6.01587E+03
 -1        34-3.49639E+02 3.41649E+02 1.17536E+03
 -1        36-2.93327E+02 2.76197E+02 2.33562E+03
 -1        38-2.61502E+02 2.39319E+02 3.41191E+03
 -1        40-2.19201E+02 1.90898E+02 4.33472E+03
 -1        42-1.55637E+02 1.49365E+02 5.07095E+03
 -1        44-1.11387E+02 1.06460E+02 5.56536E+03
 -1        46-2.36634E+01 1.21193E+01 5.87946E+03
 -1        49 2.36634E+01 1.21193E+01 5.87946E+03
 -1        51 1.11387E+02 1.06460E+02 5.56536E+03
 -1        53 1.55637E+02 1.49365E+02 5.07095E+03
 -1        55 2.19201E+02 1.90898E+02 4.33472E+03
 -1        57 2.61502E+02 2.39319E+02 3.41191E+03
 -1        59 2.93327E+02 2.76197E+02 2.33562E+03
 -1        61 3.49639E+02 3.41649E+02 1.17536E+03
 -1        64-3.50512E+02-3.58289E+02 1.17957E+03
 -1        66-2.92911E+02-3.10301E+02 2.33957E+03
 -1        68-2.60571E+02-2.84358E+02 3.41355E+03
 -1        70-2.18347E+02-2.36165E+02 4.33299E+03
 -1        72-1.55873E+02-1.84509E+02 5.06461E+03
 -1        74-9.65850E+01-1.07988E+02 5.55168E+03
 -1        76-3.90260E+01-2.03935E+01 5.81900E+03
 -1        79 3.50512E+02-3.58289E+02 1.17957E+03
 -1        81 2.92911E+02-3.10301E+02 2.33957E+03
 -1        83 2.60571E+02-2.84358E+02 3.41355E+03
 -1        85 2.18347E+02-2.36165E+02 4.33299E+03
 -1        87 1.55873E+02-1.84509E+02 5.06461E+03
 -1        89 9.65850E+01-1.07988E+02 5.55168E+03
 -1        91 3.90260E+01-2.03935E+01 5.81900E+03
 -1        95 0.00000E+00 0.00000E+00 0.00000E+00
 -1       100-3.22195E-11 2.09927E+02 6.00850E+03
 -1       105 2.69254E-10 3.36260E+02 1.16272E+03
 -1       109 4.87772E-10 2.79984E+02 2.34112E+03
 -1       113 5.50870E-10 2.38382E+02 3.41705E+03
 -1       117 4.76438E-10 1.92615E+02 4.34472E+03
 -1       121 3.10777E-10 1.49501E+02 5.07199E+03
 -1       125 1.47397E-10 9.71653E+01 5.58887E+03
 -1       129 6.20542E-12 2.69880E+01 5.87811E+03
 -1       134-3.44744E+02-7.98487E+00 1.16484E+03
 -1       138-2.96938E+02-1.72495E+01 2.34287E+03
 -1       142-2.60208E+02-2.26066E+01 3.41949E+03
 -1       146-2.18545E+02-2.31063E+01 4.33897E+03
 -1       150-1.55685E+02-1.72729E+01 5.07534E+03
 -1       154-1.08109E+02-5.99232E+00 5.59337E+03
 -1       158-5.40217E+01 2.60102E+01 5.80051E+03
 -1       163 1.77194E-10-3.53208E+02 1.16693E+03
 -1       167 3.27771E-10-3.13862E+02 2.34522E+03
 -1       171 3.43945E-10-2.83254E+02 3.41863E+03
 -1       175 2.53217E-10-2.36666E+02 4.34265E+03
 -1       179 1.08541E-10-1.86090E+02 5.06892E+03
 -1       183-8.62879E-12-9.34350E+01 5.56430E+03
 -1       187-1.27780E-10-1.74145E+01 5.82565E+03
 -1       192 3.44744E+02-7.98487E+00 1.16484E+03
 -1       196 2.96938E+02-1.72495E+01 2.34287E+03
 -1       200 2.60208E+02-2.26066E+01 3.41949E+03
 -1       204 2.18545E+02-2.31063E+01 4.33897E+03
 -1       208 1.55685E+02-1.72729E+01 5.07534E+03
 -1       212 1.08109E+02-5.99232E+00 5.59337E+03
 -1       216 5.40217E+01 2.60102E+01 5.80051E+03
 -1       222 2.24310E-10-8.13406E+00 1.15230E+03
 -1       228 4.05714E-10-1.71411E+01 2.34805E+03
 -1       234 4.42412E-10-2.25199E+01 3.42480E+03
 -1       240 3.62517E-10-2.25554E+01 4.34866E+03
 -1       246 2.15598E-10-1.74879E+01 5.08047E+03
 -1       252 7.07605E-11-6.21143E+00 5.59644E+03
 -1       258-2.86556E-11 3.54942E+01 5.84569E+03
 -3
    1PSTEP                         5           1           2          
    1PGM                1.000000E+00                                  
    1PGK                3.481246E+12                                  
    1PHID                         -1                                  
    1PSUBC                         0                                  
    1PMODE                         4                                  
  100CL  105 296952.8362          78                     2    5MODAL      1
 -4  DISP        4    1
 -5  D1          1    2    1    0
 -5  D2          1    2    2    0
 -5  D3          1    2    3    0
 -5  ALL         1    2    0    0    1ALL
 -1         1 0.00000E+00 0.00000E+00 0.00000E+00
 -1         2 0.00000E+00 0.00000E+00 0.00000E+00
 -1         3 0.00000E+00 0.00000E+00 0.00000E+00
 -1         4 0.00000E+00 0.00000E+00 0.00000E+00
 -1         5 7.98493E+02-2.45913E+02-1.54812E+02
 -1         6 7.98493E+02 2.45913E+02 1.54812E+02
 -1        10 0.00000E+00 0.00000E+00 0.00000E+00
 -1        13 0.00000E+00 0.00000E+00 0.00000E+00
 -1        16 0.00000E+00 0.00000E+00 0.00000E+00
 -1        19 0.00000E+00 0.00000E+00 0.00000E+00
 -1        22 8.93795E+02 7.64217E-11-1.28044E-10
 -1        25 4.77745E+02-7.41084E+01 5.99168E+01
 -1        31 4.77745E+02 7.41084E+01-5.99168E+01
 -1        34 3.11410E+03 3.09865E+03-3.67583E+00
 -1        36 5.45063E+03 5.41753E+03-3.74534E+00
 -1        38 6.85857E+03 6.82527E+03-1.77522E+00
 -1        40 7.13320E+03 7.11045E+03 2.25733E+01
 -1        42 6.28201E+03 6.16640E+03-3.33222E+01
 -1        44 4.07608E+03 4.65224E+03 7.63649E+01
 -1        46 1.71811E+03 5.96114E+02 6.62193E+02
 -1        49 1.71811E+03-5.96114E+02-6.62193E+02
 -1        51 4.07608E+03-4.65224E+03-7.63649E+01
 -1        53 6.28201E+03-6.16640E+03 3.33222E+01
 -1        55 7.13320E+03-7.11045E+03-2.25733E+01
 -1        57 6.85857E+03-6.82527E+03 1.77522E+00
 -1        59 5.45063E+03-5.41753E+03 3.74534E+00
 -1        61 3.11410E+03-3.09865E+03 3.67583E+00
 -1        64-3.08353E+03 3.10016E+03-3.85168E+00
 -1        66-5.38860E+03 5.41668E+03-3.33278E+00
 -1        68-6.77953E+03 6.82228E+03 2.35079E+00
 -1        70-7.05964E+03 7.10814E+03-1.81207E+01
 -1        72-6.25158E+03 6.14070E+03 1.04786E+02
 -1        74-4.26698E+03 4.38638E+03 1.36178E+02
 -1        76-3.67503E+03 2.86388E+03 1.90269E+02
 -1        79-3.08353E+03-3.10016E+03 3.85168E+00
 -1        81-5.38860E+03-5.41668E+03 3.33278E+00
 -1        83-6.77953E+03-6.82228E+03-2.35079E+00
 -1        85-7.05964E+03-7.10814E+03 1.81207E+01
 -1        87-6.25158E+03-6.14070E+03-1.04786E+02
 -1        89-4.26698E+03-4.38638E+03-1.36178E+02
 -1        91-3.67503E+03-2.86388E+03-1.90269E+02
 -1        95 0.00000E+00 0.00000E+00 0.00000E+00
 -1       100 1.26083E+02 2.10674E-11-1.29899E-10
 -1       105 3.09570E+03-5.49772E-11-9.89955E-11
 -1       109 5.44894E+03-1.27335E-10-2.51614E-10
 -1       113 6.86564E+03-1.87794E-10-4.11692E-10
 -1       117 7.14147E+03-1.95819E-10-5.11836E-10
 -1       121 6.18455E+03-1.78093E-10-4.99676E-10
 -1       125 4.38081E+03-8.28313E-11-3.80425E-10
 -1       129 2.06811E+03 1.07025E-10-1.32553E-10
 -1       134 1.55478E+01 3.08091E+03-3.81677E+00
 -1       138 3.07160E+01 5.41855E+03-3.38837E+00
 -1       142 3.92876E+01 6.82296E+03-9.21003E-01
 -1       146 3.48807E+01 7.09374E+03 6.15176E+00
 -1       150 5.62862E+00 6.26350E+03 2.17409E+01
 -1       154-1.30630E+02 4.35635E+03 1.20142E+02
 -1       158-2.46654E+02 6.18614E+02 2.13978E+02
 -1       163-3.06641E+03-1.40353E-11 5.89309E-11
 -1       167-5.38592E+03-2.89455E-11 1.70660E-10
 -1       171-6.78628E+03-8.83619E-12 2.94777E-10
 -1       175-7.06373E+03 2.45831E-11 3.62683E-10
 -1       179-6.16065E+03 4.86343E-11 3.34181E-10