
                        S T E P       1


                                INCREMENT     1


 displacements (vx,vy,vz) for set NALL and time  0.1000000E+01

         1 -4.472987E-05 -2.567119E-04  2.002604E-21
         2 -4.470015E-05 -2.545918E-04 -8.373653E-22
         3 -4.151310E-05 -2.545248E-04 -4.243437E-22
         4 -4.161803E-05 -2.566823E-04  1.747005E-21
         5 -4.472071E-05 -2.556242E-04 -4.172713E-21
         6 -4.305165E-05 -2.545821E-04 -1.838740E-20
         7 -4.158829E-05 -2.555607E-04  7.411538E-22
         8 -4.306122E-05 -2.567085E-04  3.270341E-20
         9 -3.915165E-05 -2.540293E-04 -1.740388E-21
        10 -3.936049E-05 -2.564121E-04 -7.610062E-22
        11 -4.022812E-05 -2.543453E-04 -2.484851E-21
        12 -3.927071E-05 -2.551620E-04 -1.128274E-20
        13 -4.037586E-05 -2.565890E-04 -1.279814E-20
        14 -3.780887E-05 -2.527748E-04  5.816734E-21
        15 -3.796851E-05 -2.557798E-04 -1.201066E-21
        16 -3.840262E-05 -2.535464E-04 -1.705977E-20
        17 -3.797456E-05 -2.541942E-04  7.570357E-21
        18 -3.852841E-05 -2.561397E-04  1.278490E-20
        19 -3.785482E-05 -2.501354E-04 -2.099054E-20
        20 -3.693521E-05 -2.551715E-04  6.385834E-21
        21 -3.788132E-05 -2.512526E-04 -1.183199E-20
        22 -3.734515E-05 -2.525811E-04 -1.969352E-20
        23 -3.756656E-05 -2.554418E-04 -3.308722E-20
        24 -3.274367E-05 -2.398495E-04  5.428952E-20
        25 -3.388544E-05 -2.553007E-04 -1.828400E-20
        26 -3.642837E-05 -2.462613E-04  6.448038E-20
        27 -3.364777E-05 -2.494338E-04  5.341602E-20
        28 -3.580400E-05 -2.550121E-04 -1.040262E-20
        29 -2.459158E-05 -2.338345E-04  7.492271E-19
        30 -2.706772E-05 -2.557729E-04 -2.151852E-19
        31 -2.932036E-05 -2.355231E-04  1.105802E-18
        32 -2.617858E-05 -2.459789E-04  6.335277E-19
        33 -3.083647E-05 -2.556114E-04 -2.724534E-19
        34 -1.263914E-05 -2.294333E-04 -1.947514E-19
        35 -1.755253E-05 -2.570596E-04  4.829411E-20
        36 -1.927238E-05 -2.317550E-04  7.778674E-19
        37 -1.635992E-05 -2.444474E-04 -8.862744E-20
        38 -2.256833E-05 -2.562378E-04 -1.535644E-19
        39  4.282897E-06 -2.223977E-04  9.140015E-20
        40 -5.968507E-06 -2.620987E-04 -1.365841E-20
        41 -4.778371E-06 -2.263648E-04 -1.744094E-19
        42  4.458430E-07 -2.397060E-04  7.078019E-20
        43 -1.268226E-05 -2.594898E-04  5.442187E-20
        44 -4.471173E-05 -2.526109E-04  3.697911E-21
        45 -4.135166E-05 -2.527045E-04 -6.034283E-22
        46 -4.470124E-05 -2.536210E-04  2.321276E-21
        47 -4.294331E-05 -2.526617E-04 -1.365903E-20
        48 -4.144181E-05 -2.535499E-04  1.021568E-21
        49 -3.884540E-05 -2.522838E-04  1.493888E-21
        50 -3.996714E-05 -2.526046E-04 -4.979627E-21
        51 -3.899378E-05 -2.531405E-04 -5.068963E-21
        52 -3.765359E-05 -2.509489E-04 -4.142521E-21
        53 -3.784483E-05 -2.518757E-04 -1.660979E-20
        54 -3.779594E-05 -2.512783E-04  1.323489E-21
        55 -3.826182E-05 -2.425059E-04  1.196434E-20
        56 -3.758292E-05 -2.483030E-04  1.651714E-20
        57 -3.818885E-05 -2.472526E-04 -2.911676E-20
        58 -2.969315E-05 -2.100991E-04 -1.882663E-20
        59 -3.679121E-05 -2.261080E-04  6.352747E-20
        60 -3.109549E-05 -2.266836E-04  1.897883E-19
        61 -1.874159E-05 -2.085393E-04  6.477155E-20
        62 -2.383011E-05 -2.097239E-04  1.619156E-19
        63 -2.182209E-05 -2.198405E-04  9.907639E-19
        64 -8.069435E-06 -2.018544E-04 -2.903735E-20
        65 -1.357042E-05 -2.054881E-04  6.199222E-20
        66 -1.036431E-05 -2.144155E-04 -1.788298E-19
        67  1.319853E-05 -1.861867E-04  2.249931E-20
        68 -1.465596E-07 -1.941716E-04 -1.778769E-20
        69  8.191948E-06 -2.109805E-04  1.178170E-19
        70 -4.121888E-05 -2.599855E-04  1.728807E-21
        71 -4.450635E-05 -2.598511E-04 -1.354922E-21
        72 -4.145905E-05 -2.582837E-04  1.455838E-20
        73 -4.271406E-05 -2.599193E-04  2.705873E-20
        74 -4.466324E-05 -2.582387E-04 -1.658001E-20
        75 -4.047212E-05 -2.634933E-04 -1.019087E-21
        76 -4.382519E-05 -2.631734E-04 -6.121137E-22
        77 -4.088433E-05 -2.617387E-04  6.551270E-22
        78 -4.201099E-05 -2.633245E-04 -4.268252E-21
        79 -4.422154E-05 -2.615110E-04  1.658332E-20
        80 -3.943525E-05 -2.668142E-04  2.144052E-21
        81 -4.269278E-05 -2.663586E-04 -6.352747E-22
        82 -3.998062E-05 -2.651973E-04 -9.290893E-21
        83 -4.098390E-05 -2.665776E-04  1.410839E-20
        84 -4.330233E-05 -2.648045E-04  1.340694E-20
        85 -3.824201E-05 -2.696640E-04  2.316106E-22
        86 -4.129499E-05 -2.691550E-04 -1.687448E-21
        87 -3.884836E-05 -2.683076E-04  7.676236E-21
        88 -3.976825E-05 -2.693985E-04  8.046813E-21
        89 -4.200936E-05 -2.678176E-04 -1.909795E-20
        90 -3.704711E-05 -2.719417E-04  2.646978E-22
        91 -3.989602E-05 -2.714720E-04  5.029258E-22
        92 -3.763532E-05 -2.708717E-04  1.638479E-20
        93 -3.854960E-05 -2.716970E-04 -7.385069E-21
        94 -4.058020E-05 -2.703710E-04 -3.329898E-20
        95 -3.600534E-05 -2.737440E-04  3.596581E-21
        96 -3.876061E-05 -2.733986E-04 -2.686683E-21
        97 -3.649970E-05 -2.728871E-04  8.357833E-21
        98 -3.752055E-05 -2.735617E-04 -1.429368E-21
        99 -3.928510E-05 -2.724704E-04 -2.613891E-20
       100 -3.525244E-05 -2.753525E-04 -2.291290E-21
       101 -3.807660E-05 -2.751859E-04  1.359885E-21
       102 -3.559016E-05 -2.745486E-04  7.795350E-21
       103 -3.681301E-05 -2.752660E-04 -1.509439E-20
       104 -3.836274E-05 -2.742876E-04  3.712387E-21
       105 -3.484774E-05 -2.771599E-04 -1.727153E-21
       106 -3.785127E-05 -2.771550E-04  1.890935E-21
       107 -3.500940E-05 -2.762065E-04 -1.510101E-20
       108 -3.646233E-05 -2.771685E-04 -1.819797E-20
       109 -3.791857E-05 -2.761313E-04  5.035876E-21
       110 -3.884740E-05 -2.601239E-04  7.576974E-22
       111 -3.916968E-05 -2.582058E-04 -1.654361E-21
       112 -3.994205E-05 -2.600501E-04 -2.283680E-20
       113 -3.788657E-05 -2.640038E-04  2.359119E-21
       114 -3.841706E-05 -2.620776E-04  1.349959E-21
       115 -3.911032E-05 -2.637087E-04 -4.998818E-20
       116 -3.661168E-05 -2.675583E-04 -2.249931E-21
       117 -3.727697E-05 -2.658461E-04  6.928465E-21
       118 -3.798744E-05 -2.671305E-04  2.845501E-22
       119 -3.519384E-05 -2.704904E-04  7.345364E-22
       120 -3.591081E-05 -2.691131E-04  7.987256E-21
       121 -3.671714E-05 -2.700144E-04  3.937380E-21
       122 -3.377300E-05 -2.727045E-04 -2.613891E-21
       123 -3.447413E-05 -2.716863E-04  2.276401E-21
       124 -3.544280E-05 -2.722657E-04  4.002231E-20
       125 -3.248931E-05 -2.742889E-04 -3.010937E-22
       126 -3.310231E-05 -2.735617E-04 -2.646978E-23
       127 -3.431512E-05 -2.739749E-04  1.601422E-20
       128 -3.151540E-05 -2.755345E-04  1.823106E-21
       129 -3.195116E-05 -2.749254E-04 -2.316106E-22
       130 -3.347316E-05 -2.754352E-04 -1.211654E-20
       131 -3.098692E-05 -2.769262E-04  1.419442E-21
       132 -3.118449E-05 -2.761707E-04  2.498085E-20
       133 -3.303117E-05 -2.770855E-04  7.934316E-21
       134 -3.707364E-05 -2.604216E-04  4.135903E-22
       135 -3.761356E-05 -2.580453E-04 -2.249931E-21
       136 -3.792294E-05 -2.602248E-04  3.017555E-21
       137 -3.563236E-05 -2.649692E-04 -1.326798E-21
       138 -3.640505E-05 -2.627474E-04  2.421985E-21
       139 -3.675201E-05 -2.644077E-04  1.091878E-21
       140 -3.394175E-05 -2.688744E-04  1.419442E-21
       141 -3.480601E-05 -2.670220E-04  4.658681E-21
       142 -3.527660E-05 -2.681340E-04  2.096407E-20
       143 -3.215592E-05 -2.719244E-04 -3.259092E-22
       144 -3.305440E-05 -2.705139E-04 -7.299042E-21
       145 -3.367588E-05 -2.711200E-04  2.648301E-20
       146 -3.036592E-05 -2.740482E-04  1.828069E-21
       147 -3.125632E-05 -2.731016E-04  3.047333E-21
       148 -3.206938E-05 -2.732916E-04 -2.564260E-20
       149 -2.866143E-05 -2.753007E-04  3.282253E-21
       150 -2.949451E-05 -2.747738E-04  1.482969E-20
       151 -3.058511E-05 -2.747161E-04 -8.337981E-21
       152 -2.719906E-05 -2.758949E-04 -2.273092E-21
       153 -2.787936E-05 -2.756531E-04  1.024380E-20
       154 -2.939498E-05 -2.756631E-04  7.464478E-21
       155 -2.627403E-05 -2.763613E-04 -1.098496E-21
       156 -2.664580E-05 -2.760790E-04 -1.093202E-20
       157 -2.876798E-05 -2.766816E-04  3.308722E-22
       158 -3.516446E-05 -2.612814E-04 -1.968690E-21
       159 -3.611814E-05 -2.582804E-04  9.211483E-21
       160 -3.621309E-05 -2.607404E-04 -1.044233E-20
       161 -3.312860E-05 -2.666263E-04  2.407096E-21
       162 -3.415197E-05 -2.640750E-04  6.782881E-21
       163 -3.446449E-05 -2.657032E-04  1.369149E-20
       164 -3.110409E-05 -2.708973E-04  3.580141E-22
       165 -3.211420E-05 -2.688974E-04 -8.134494E-21
       166 -3.256644E-05 -2.698009E-04 -1.337386E-20
       167 -2.911630E-05 -2.740531E-04  1.182041E-21
       168 -3.010727E-05 -2.726152E-04  1.738320E-20
       169 -3.063648E-05 -2.729084E-04  4.261304E-20
       170 -2.712258E-05 -2.761025E-04 -2.014827E-21
       171 -2.812174E-05 -2.752203E-04 -3.537851E-21
       172 -2.870032E-05 -2.749905E-04  2.385258E-20
       173 -2.508935E-05 -2.770292E-04 -4.615668E-22
       174 -2.610880E-05 -2.767070E-04 -4.456849E-21
       175 -2.679100E-05 -2.760680E-04  2.960645E-20
       176 -2.303869E-05 -2.768592E-04 -3.970467E-23
       177 -2.405952E-05 -2.770725E-04 -1.439294E-20
       178 -2.502325E-05 -2.762661E-04 -9.330597E-21
       179 -2.124482E-05 -2.758920E-04  8.007108E-22
       180 -2.207514E-05 -2.764381E-04 -1.397604E-20
       181 -2.363541E-05 -2.760841E-04 -2.858736E-21
       182 -3.164573E-05 -2.629727E-04  6.708435E-21
       183 -3.274110E-05 -2.593312E-04 -3.161815E-20
       184 -3.368611E-05 -2.620513E-04  4.486628E-21
       185 -2.960973E-05 -2.689773E-04 -3.111853E-21
       186 -3.060568E-05 -2.661823E-04 -2.771572E-22
       187 -3.153196E-05 -2.677275E-04 -5.649644E-22
       188 -2.775276E-05 -2.734765E-04  2.061334E-21
       189 -2.865239E-05 -2.714014E-04  1.660979E-21
       190 -2.951247E-05 -2.721368E-04 -9.509268E-21
       191 -2.606216E-05 -2.766963E-04 -1.373120E-21
       192 -2.689658E-05 -2.752375E-04 -3.361662E-21
       193 -2.759045E-05 -2.753382E-04  9.098987E-21
       194 -2.437365E-05 -2.787245E-04  1.383046E-21
       195 -2.522791E-05 -2.778629E-04  1.586863E-20
       196 -2.566916E-05 -2.773662E-04  2.438859E-20
       197 -2.251448E-05 -2.794660E-04 -1.492234E-21
       198 -2.347306E-05 -2.792719E-04 -1.078644E-20
       199 -2.364445E-05 -2.781717E-04 -2.309075E-20
       200 -2.047758E-05 -2.786823E-04  2.888515E-21
       201 -2.151761E-05 -2.792850E-04  5.138446E-21
       202 -2.148193E-05 -2.776960E-04 -2.424632E-20
       203 -1.823338E-05 -2.762043E-04 -1.005852E-21
       204 -1.937929E-05 -2.776412E-04  2.410073E-20
       205 -1.935727E-05 -2.758154E-04 -2.223461E-20
       206 -2.582421E-05 -2.653016E-04  5.209583E-20
       207 -2.653842E-05 -2.609693E-04 -2.036452E-19
       208 -2.904884E-05 -2.640450E-04 -2.608928E-21
       209 -2.461013E-05 -2.716947E-04 -1.103790E-20
       210 -2.518193E-05 -2.687908E-04  5.542772E-20
       211 -2.728028E-05 -2.703275E-04 -3.774591E-20
       212 -2.372505E-05 -2.761923E-04  9.132074E-22
       213 -2.412786E-05 -2.741404E-04 -3.970467E-22
       214 -2.581232E-05 -2.748510E-04 -1.342018E-20
       215 -2.298337E-05 -2.794078E-04 -8.337981E-22
       216 -2.334263E-05 -2.779441E-04 -1.138201E-20
       217 -2.452630E-05 -2.780748E-04  1.369811E-20
       218 -2.224418E-05 -2.814871E-04 -2.349193E-21
       219 -2.262573E-05 -2.805923E-04 -2.289636E-20
       220 -2.324294E-05 -2.801250E-04  1.773475E-20
       221 -2.136632E-05 -2.822803E-04 -1.363194E-21
       222 -2.184420E-05 -2.820782E-04 -4.499863E-22
       223 -2.177668E-05 -2.808648E-04 -9.793818E-22
       224 -2.015398E-05 -2.811726E-04  1.280476E-21
       225 -2.079537E-05 -2.820160E-04 -7.676236E-22
       226 -2.000430E-05 -2.798245E-04  2.426286E-20
       227 -1.889792E-05 -2.769170E-04 -6.187311E-22
       228 -1.943672E-05 -2.794673E-04 -1.457161E-20
       229 -1.821167E-05 -2.766312E-04 -2.837560E-20
       230 -1.820323E-05 -2.680130E-04 -1.033645E-20
       231 -1.781883E-05 -2.634968E-04  3.149904E-20
       232 -2.207325E-05 -2.666013E-04  6.299808E-21
       233 -1.860438E-05 -2.742862E-04  1.323489E-21
       234 -1.835810E-05 -2.715228E-04 -1.604069E-20
       235 -2.168313E-05 -2.730398E-04 -8.337981E-21
       236 -1.929322E-05 -2.785933E-04 -1.694066E-21
       237 -1.896571E-05 -2.766025E-04 -1.760240E-20
       238 -2.149829E-05 -2.774549E-04 -2.117582E-22
       239 -1.985248E-05 -2.817653E-04  2.077878E-21
       240 -1.957683E-05 -2.803056E-04  1.262608E-20
       241 -2.142433E-05 -2.806413E-04 -2.684036E-20
       242 -2.041618E-05 -2.839289E-04 -9.264423E-23
       243 -2.012886E-05 -2.829728E-04  9.740879E-21
       244 -2.135484E-05 -2.827724E-04  8.470329E-22
       245 -2.111833E-05 -2.849650E-04  1.574952E-21
       246 -2.074977E-05 -2.846080E-04 -3.414602E-21
       247 -2.118083E-05 -2.836741E-04  1.823768E-20
       248 -2.153835E-05 -2.840413E-04 -8.735027E-22
       249 -2.137275E-05 -2.848795E-04  2.022291E-20
       250 -2.080301E-05 -2.825514E-04 -2.416691E-20
       251 -2.222579E-05 -2.784723E-04 -3.692534E-21
       252 -2.193611E-05 -2.822157E-04 -7.940934E-21
       253 -2.030707E-05 -2.775124E-04  1.631862E-20
       254 -1.163978E-05 -2.710145E-04  1.932294E-21
       255 -8.749576E-06 -2.671135E-04 -1.927000E-20
       256 -1.402042E-05 -2.696319E-04 -1.810533E-20
       257 -1.366584E-05 -2.763925E-04  2.170522E-21
       258 -1.281206E-05 -2.739372E-04  1.244080E-20
       259 -1.590265E-05 -2.753335E-04 -8.735027E-21
       260 -1.531604E-05 -2.806173E-04 -1.614657E-21
       261 -1.454724E-05 -2.786574E-04  4.499863E-21
       262 -1.718696E-05 -2.796263E-04  1.090555E-20
       263 -1.667277E-05 -2.837710E-04 -1.852885E-22
       264 -1.601564E-05 -2.823190E-04 -7.093901E-21
       265 -1.826759E-05 -2.827814E-04 -1.312901E-20
       266 -1.803049E-05 -2.859886E-04  1.204375E-21
       267 -1.733014E-05 -2.850003E-04 -5.717472E-21
       268 -1.935152E-05 -2.849761E-04 -1.106437E-20
       269 -1.968354E-05 -2.871401E-04 -3.679299E-21
       270 -1.880034E-05 -2.867144E-04 -2.805797E-21
       271 -2.064419E-05 -2.860509E-04 -3.118140E-20
       272 -2.171621E-05 -2.871761E-04  1.588187E-21
       273 -2.053983E-05 -2.873904E-04 -3.144610E-20
       274 -2.254748E-05 -2.857377E-04 -6.829203E-21
       275 -2.738373E-05 -2.837698E-04  1.270549E-21
       276 -2.460994E-05 -2.860034E-04  1.810533E-20
       277 -2.392725E-05 -2.810338E-04  6.352747E-21
       278 -3.454050E-05 -2.788581E-04  5.260869E-22
       279 -3.788056E-05 -2.789105E-04 -6.367223E-21
       280 -3.467096E-05 -2.779652E-04 -1.121657E-21
       281 -3.626618E-05 -2.789082E-04  2.772709E-21
       282 -3.786017E-05 -2.780053E-04 -8.631630E-21
       283 -3.427948E-05 -2.808994E-04  6.971065E-22
       284 -3.786946E-05 -2.808062E-04  5.258801E-21
       285 -3.440714E-05 -2.798132E-04  3.972121E-21
       286 -3.616266E-05 -2.808572E-04  2.399423E-20
       287 -3.787987E-05 -2.798780E-04 -7.424049E-21
       288 -3.037790E-05 -2.783740E-04  1.171288E-21
       289 -3.067028E-05 -2.775932E-04  7.246102E-21
       290 -3.256110E-05 -2.786850E-04  5.714164E-21
       291 -2.984070E-05 -2.804754E-04 -1.505469E-21
       292 -3.011471E-05 -2.794065E-04  6.193928E-21
       293 -3.219437E-05 -2.807981E-04 -9.118839E-21
       294 -2.518539E-05 -2.771413E-04  9.462946E-22
       295 -2.564100E-05 -2.766684E-04 -6.511566E-21
       296 -2.785941E-05 -2.778990E-04  2.416691E-20
       297 -2.408107E-05 -2.791344E-04 -6.154224E-22
       298 -2.456652E-05 -2.775372E-04 -9.410007E-21
       299 -2.736289E-05 -2.800686E-04  1.860826E-20
       300 -1.865197E-05 -2.745837E-04 -3.533716E-21
       301 -2.000676E-05 -2.751736E-04  4.102816E-21
       302 -2.185551E-05 -2.756467E-04 -2.911676E-22
       303 -1.655430E-05 -2.706325E-04 -7.940934E-22
       304 -1.746886E-05 -2.735539E-04  4.023406E-21
       305 -2.067679E-05 -2.764390E-04  5.029258E-21
       306 -1.678218E-05 -2.676299E-04  2.951380E-21
       307 -1.706664E-05 -2.735102E-04 -4.738091E-21
       308 -1.654932E-05 -2.722335E-04  4.076346E-20
       309 -1.812706E-05 -2.465882E-04  1.713918E-21
       310 -1.747634E-05 -2.586247E-04  0.000000E+00
       311 -1.452879E-05 -2.584546E-04 -8.682088E-21
       312 -2.001364E-05 -2.628415E-04  1.098496E-21
       313 -1.911205E-05 -2.711080E-04 -1.876707E-20
       314 -1.798347E-05 -2.644442E-04 -1.831709E-20
       315 -2.443581E-05 -2.450793E-04 -3.096964E-21
       316 -2.208224E-05 -2.525942E-04  1.445250E-20
       317 -2.168018E-05 -2.462292E-04  4.314574E-21
       318 -2.658560E-05 -2.586423E-04  1.942220E-21
       319 -2.312749E-05 -2.697618E-04  1.991851E-21
       320 -2.264095E-05 -2.608465E-04  6.617445E-21
       321 -3.043708E-05 -2.383480E-04  3.917527E-21
       322 -2.850648E-05 -2.473036E-04  3.705769E-21
       323 -2.726105E-05 -2.420037E-04  4.060464E-20
       324 -3.798967E-05 -2.518277E-04 -3.705769E-22
       325 -3.402569E-05 -2.653292E-04  4.309280E-20
       326 -3.173091E-05 -2.556474E-04  1.270549E-21
       327 -4.725766E-05 -2.224656E-04  2.117582E-22
       328 -4.203845E-05 -2.441322E-04 -1.647744E-21
       329 -3.608520E-05 -2.305704E-04  1.154082E-20
       330 -1.334536E-05 -2.932131E-04 -1.667596E-21
       331 -1.332225E-05 -2.972913E-04  1.310254E-21
       332 -1.884303E-05 -2.892513E-04  4.266928E-20
       333 -1.358748E-05 -2.943390E-04 -1.005852E-20
       334 -1.766920E-05 -2.919774E-04  5.188077E-20
       335 -6.480462E-06 -2.995324E-04  7.543887E-22
       336 -5.576745E-06 -3.031532E-04  5.293956E-23
       337 -9.973827E-06 -2.964066E-04 -9.952637E-21
       338 -5.970878E-06 -3.013943E-04 -3.441071E-21
       339 -8.466020E-06 -3.004230E-04 -3.827530E-20
       340 -1.139740E-06 -3.056624E-04 -1.574952E-21
       341 -9.901986E-08 -3.088389E-04  2.249931E-21
       342 -3.741348E-06 -3.026476E-04  3.599890E-21
       343 -6.307929E-07 -3.071969E-04  8.152692E-21
       344 -2.618583E-06 -3.059853E-04 -3.684593E-20
       345  3.331068E-06 -3.115149E-04 -7.279189E-22
       346  4.403904E-06 -3.142917E-04 -2.474924E-21
       347  1.160375E-06 -3.086010E-04  3.120787E-20
       348  3.885737E-06 -3.129053E-04 -3.864588E-21
       349  2.286376E-06 -3.115701E-04  5.624828E-20
       350  7.151638E-06 -3.173573E-04 -5.161607E-22
       351  8.198811E-06 -3.197432E-04 -7.146840E-22
       352  5.303149E-06 -3.144292E-04 -5.505714E-20
       353  7.664209E-06 -3.186029E-04 -1.503483E-20
       354  6.428437E-06 -3.170118E-04 -3.819589E-20
       355  1.014055E-05 -3.234391E-04  1.482308E-21
       356  1.106787E-05 -3.254458E-04 -1.323489E-22
       357  8.717288E-06 -3.203524E-04  1.328783E-20
       358  1.065394E-05 -3.243932E-04  6.855673E-21
       359  9.838002E-06 -3.225985E-04 -3.075788E-20
       360  1.175534E-05 -3.296600E-04  6.352747E-22
       361  1.187083E-05 -3.313696E-04  1.184523E-21
       362  1.087164E-05 -3.265177E-04 -1.117025E-20
       363  1.156218E-05 -3.314255E-04 -3.282253E-21
       364  1.237154E-05 -3.282079E-04 -3.282253E-21
       365  1.246629E-05 -3.355641E-04  3.705769E-22
       366  7.443050E-06 -3.449685E-04 -6.352747E-22
       367  1.080476E-05 -3.334891E-04  4.023406E-21
       368  9.853987E-06 -3.395686E-04  5.293956E-21
       369  1.190250E-05 -3.367920E-04  7.951522E-20
       370 -1.403652E-05 -2.910002E-04  3.388132E-21
       371 -1.719359E-05 -2.889069E-04  2.699918E-21
       372 -1.388769E-05 -2.919145E-04  2.181110E-20
       373 -7.569521E-06 -2.966546E-04  1.323489E-22
       374 -1.049479E-05 -2.937618E-04 -1.027027E-20
       375 -7.040005E-06 -2.980624E-04 -1.180552E-20
       376 -2.280639E-06 -3.027025E-04  1.667596E-21
       377 -4.745312E-06 -2.996734E-04  6.193928E-21
       378 -1.723988E-06 -3.041459E-04  7.146840E-21
       379  2.172532E-06 -3.087487E-04 -1.270549E-21
       380  4.763398E-08 -3.057300E-04  8.946786E-21
       381  2.756733E-06 -3.101304E-04 -5.082198E-21
       382  6.027257E-06 -3.147668E-04 -1.283784E-21
       383  4.195286E-06 -3.117611E-04 -1.111731E-20
       384  6.574478E-06 -3.160919E-04 -1.111731E-21
       385  9.084842E-06 -3.207168E-04 -1.005852E-21
       386  7.723967E-06 -3.177550E-04  6.935082E-21
       387  9.593916E-06 -3.221036E-04 -5.717472E-21
       388  1.108941E-05 -3.262397E-04 -1.720536E-21
       389  1.035654E-05 -3.235497E-04 -2.641684E-20
       390  1.124631E-05 -3.281048E-04  4.393983E-21
       391  1.402286E-05 -3.301105E-04 -9.264423E-23
       392  1.226328E-05 -3.283004E-04 -9.952637E-21
       393  1.338433E-05 -3.325954E-04 -3.229313E-21
       394 -1.330146E-05 -2.892750E-04 -5.161607E-22
       395 -1.586559E-05 -2.874462E-04  3.282253E-20
       396 -1.371004E-05 -2.901859E-04 -1.958764E-21
       397 -8.016405E-06 -2.941380E-04 -2.991085E-21
       398 -1.066074E-05 -2.915109E-04  2.668154E-20
       399 -7.841776E-06 -2.953802E-04  2.752857E-21
       400 -3.251585E-06 -2.999177E-04 -3.044025E-21
       401 -5.598985E-06 -2.969453E-04 -3.970467E-21
       402 -2.776948E-06 -3.012912E-04 -9.211483E-21
       403  1.080269E-06 -3.059995E-04  3.626360E-21
       404 -1.044845E-06 -3.029490E-04  1.355253E-20
       405  1.622292E-06 -3.073694E-04  1.249374E-20
       406  5.069077E-06 -3.120482E-04 -6.352747E-22
       407  3.111921E-06 -3.090454E-04 -3.239901E-20
       408  5.537258E-06 -3.134183E-04 -1.048203E-20
       409  8.639148E-06 -3.177378E-04  3.573420E-22
       410  6.890847E-06 -3.149794E-04  1.069379E-20
       411  8.814519E-06 -3.192346E-04  7.623297E-21
       412  1.173476E-05 -3.225169E-04  1.151435E-21
       413  1.017505E-05 -3.203106E-04 -1.000558E-20
       414  1.138075E-05 -3.243118E-04 -1.794651E-20
       415  1.534028E-05 -3.258634E-04 -5.426305E-22
       416  1.336408E-05 -3.243514E-04 -8.470329E-22
       417  1.472819E-05 -3.278315E-04  1.709948E-20
       418 -1.252742E-05 -2.869028E-04 -9.264423E-23
       419 -1.460616E-05 -2.851940E-04  1.985233E-20
       420 -1.292414E-05 -2.881753E-04  1.471720E-20
       421 -8.354995E-06 -2.915123E-04  1.455838E-22
       422 -1.044170E-05 -2.890360E-04 -1.958764E-20
       423 -8.204057E-06 -2.928399E-04 -1.461132E-20
       424 -4.173927E-06 -2.971962E-04 -7.940934E-23
       425 -6.266226E-06 -2.942706E-04 -6.723324E-21
       426 -3.718448E-06 -2.985517E-04 -1.207022E-20
       427  0.000000E+00 -3.032770E-04 -3.044025E-22
       428 -2.082960E-06 -3.002233E-04  1.222904E-20
       429  5.391159E-07 -3.046368E-04  1.927000E-20
       430  4.159507E-06 -3.093322E-04  4.235165E-22
       431  2.080367E-06 -3.063273E-04 -2.345222E-20
       432  4.609752E-06 -3.106860E-04  1.058791E-22
       433  8.291663E-06 -3.149441E-04 -1.747005E-21
       434  6.231457E-06 -3.122248E-04 -5.188077E-21
       435  8.449298E-06 -3.163185E-04 -6.511566E-21
       436  1.237857E-05 -3.195057E-04  2.885206E-21
       437  1.034032E-05 -3.173852E-04  1.625244E-20
       438  1.204922E-05 -3.209186E-04  7.358599E-21
       439  1.640195E-05 -3.227233E-04 -8.523269E-21
       440  1.440005E-05 -3.212393E-04  6.458626E-21
       441  1.588934E-05 -3.241658E-04 -1.482308E-20
       442 -1.175134E-05 -2.838833E-04  2.130817E-21
       443 -1.334619E-05 -2.820688E-04  1.021733E-20
       444 -1.213024E-05 -2.854802E-04  1.169964E-20
       445 -8.690412E-06 -2.887273E-04 -5.426305E-22
       446 -1.021931E-05 -2.861115E-04 -7.517417E-21
       447 -8.505325E-06 -2.901338E-04 -1.169964E-20
       448 -5.096617E-06 -2.944965E-04  1.349959E-21
       449 -6.932698E-06 -2.915240E-04 -2.048761E-20
       450 -4.630358E-06 -2.958437E-04  5.876291E-21
       451 -1.080939E-06 -3.005833E-04 -6.088049E-22
       452 -3.123278E-06 -2.975245E-04 -1.572305E-20
       453 -5.382236E-07 -3.019276E-04 -4.288104E-21
       454  3.246170E-06 -3.066524E-04  2.964615E-21
       455  1.047237E-06 -3.036338E-04 -3.536363E-20
       456  3.709096E-06 -3.079907E-04  6.299808E-21
       457  7.938614E-06 -3.123750E-04 -8.933551E-21
       458  5.567740E-06 -3.095994E-04 -1.588187E-20
       459  8.132706E-06 -3.136361E-04 -1.265255E-20
       460  1.302166E-05 -3.171882E-04  2.477571E-20
       461  1.050288E-05 -3.149674E-04  3.335192E-21
       462  1.270786E-05 -3.182527E-04  1.985233E-20
       463  1.746641E-05 -3.205492E-04 -9.727644E-20
       464  1.543834E-05 -3.190342E-04 -7.480360E-20
       465  1.691523E-05 -3.215118E-04 -8.862082E-20
       466 -1.100713E-05 -2.802038E-04 -4.632211E-22
       467 -1.201383E-05 -2.781333E-04  1.561717E-20
       468 -1.133901E-05 -2.820965E-04  1.450544E-20
       469 -9.130540E-06 -2.858144E-04 -1.773475E-21
       470 -1.037410E-05 -2.829410E-04  2.938146E-20
       471 -8.861579E-06 -2.872581E-04 -1.487602E-20
       472 -6.067448E-06 -2.918428E-04 -1.389663E-21
       473 -7.781246E-06 -2.888192E-04  3.377544E-20
       474 -5.570888E-06 -2.931532E-04  1.244080E-20
       475 -2.179061E-06 -2.979006E-04  3.057260E-21
       476 -4.218677E-06 -2.948725E-04 -5.558654E-21
       477 -1.625399E-06 -2.992430E-04 -8.946786E-21
       478  2.277059E-06 -3.039585E-04 -2.845501E-21
       479 -4.535377E-08 -3.009293E-04 -3.134022E-20
       480  2.773337E-06 -3.053187E-04 -5.876291E-21
       481  7.479568E-06 -3.099803E-04  7.636531E-21
       482  4.719092E-06 -3.069810E-04 -1.148788E-20
       483  7.757831E-06 -3.111860E-04  8.735027E-21
       484  1.366704E-05 -3.155844E-04 -3.107552E-20
       485  1.030656E-05 -3.128534E-04 -9.158544E-21
       486  1.337703E-05 -3.163226E-04 -1.688772E-20
       487  1.879094E-05 -3.194981E-04  1.238256E-19
       488  1.654613E-05 -3.176703E-04  1.175258E-19
       489  1.808127E-05 -3.198666E-04  5.346895E-20
       490 -1.167560E-05 -2.769756E-04  1.535247E-21
       491 -1.035571E-05 -2.730549E-04 -2.646978E-22
       492 -1.114687E-05 -2.784079E-04 -5.611593E-21
       493 -1.020712E-05 -2.832342E-04 -5.293956E-23
       494 -1.088046E-05 -2.801341E-04 -9.582060E-21
       495 -9.653653E-06 -2.844985E-04 -1.694066E-21
       496 -7.208440E-06 -2.893441E-04  5.426305E-22
       497 -8.782595E-06 -2.863351E-04  1.429368E-20
       498 -6.624496E-06 -2.905588E-04  9.529121E-22
       499 -3.348046E-06 -2.952200E-04  1.852885E-22
       500 -5.337664E-06 -2.922878E-04  1.439956E-20
       501 -2.768010E-06 -2.965620E-04  5.611593E-21
       502  1.133671E-06 -3.011200E-04 -1.270549E-21
       503 -1.166959E-06 -2.981545E-04 -1.328783E-20
       504  1.719597E-06 -3.025728E-04 -2.435220E-21
       505  6.394461E-06 -3.073013E-04  2.514629E-22
       506  3.705716E-06 -3.041560E-04 -6.114519E-20
       507  6.956841E-06 -3.086672E-04 -4.711621E-21
       508  1.296857E-05 -3.136494E-04  6.829203E-21
       509  9.767116E-06 -3.104412E-04 -2.435220E-21
       510  1.349785E-05 -3.147773E-04 -7.835055E-21
       511  2.035952E-05 -3.196730E-04 -2.752857E-20
       512  1.801545E-05 -3.175631E-04 -3.859294E-20
       513  1.943349E-05 -3.193381E-04  9.349126E-20
       514 -1.168871E-05 -2.755601E-04  1.859502E-21
       515 -1.149864E-05 -2.702750E-04 -5.770412E-20
       516 -1.142326E-05 -2.753570E-04  1.614657E-20
       517 -1.110918E-05 -2.813718E-04 -1.124966E-21
       518 -1.237912E-05 -2.786607E-04 -9.899698E-21
       519 -1.071662E-05 -2.823552E-04 -6.908612E-21
       520 -8.256430E-06 -2.870326E-04 -4.102816E-22
       521 -9.907104E-06 -2.841860E-04  1.688772E-20
       522 -7.721228E-06 -2.881413E-04 -3.282253E-21
       523 -4.434752E-06 -2.925112E-04 -7.676236E-22
       524 -6.473442E-06 -2.897705E-04 -4.012819E-20
       525 -3.909282E-06 -2.938679E-04  6.140989E-21
       526  6.528056E-08 -2.980381E-04  1.839650E-21
       527 -2.311399E-06 -2.952627E-04 -3.393426E-20
       528  6.114905E-07 -2.996374E-04  7.676236E-22
       529  5.439711E-06 -3.038704E-04 -2.435220E-21
       530  2.558319E-06 -3.009536E-04 -1.974646E-20
       531  5.865487E-06 -3.055349E-04 -1.109084E-20
       532  1.283396E-05 -3.099518E-04 -9.198248E-22
       533  8.224077E-06 -3.067044E-04 -2.207580E-20
       534  1.315215E-05 -3.127325E-04  1.270549E-20
       535  2.543675E-05 -3.238520E-04  6.882143E-21
       536  1.686711E-05 -3.155019E-04 -4.330456E-20
       537  2.300791E-05 -3.210584E-04 -1.503483E-20
       538  3.105127E-05 -3.521172E-04 -1.588187E-21
       539  2.447026E-05 -3.456958E-04  1.038939E-20
       540  2.034272E-05 -3.291187E-04 -3.310046E-20
       541  2.965472E-05 -3.437791E-04  4.480010E-20
       542  2.771647E-05 -3.484967E-04 -1.492896E-20
       543  2.113542E-05 -3.367744E-04 -8.066665E-20
       544  2.127352E-05 -3.266648E-04  2.646978E-22
       545  2.006762E-05 -3.406136E-04  8.107693E-20
       546  1.857883E-05 -3.295334E-04 -2.795159E-19
       547  2.181490E-05 -3.428940E-04  1.194316E-19
       548  1.899575E-05 -3.344268E-04 -2.691844E-19
       549  1.924952E-05 -3.294768E-04 -5.041401E-19
       550  1.785761E-05 -3.363444E-04 -1.563040E-20
       551  1.880448E-05 -3.296033E-04  7.076696E-20
       552  1.872413E-05 -3.389784E-04  4.650740E-20
       553  1.790973E-05 -3.317605E-04  7.107136E-20
       554  1.843454E-05 -3.294849E-04 -3.106361E-19
       555  1.973442E-05 -3.304183E-04 -9.158544E-21
       556  2.190255E-05 -3.295648E-04  4.383396E-20
       557  1.779916E-05 -3.324427E-04  0.000000E+00
       558  2.085983E-05 -3.300390E-04  4.049876E-20
       559  2.004412E-05 -3.297355E-04  1.592687E-19
       560  2.566064E-05 -3.281401E-04  7.692780E-20
       561  2.664023E-05 -3.290398E-04 -2.894934E-19
       562  2.263919E-05 -3.294344E-04  7.938287E-20
       563  2.607794E-05 -3.286579E-04 -2.999555E-19