    1C
    1UBalken                                                            
    1UUSER                                                              
    1UDATE              25.june.2020                                    
    1UTIME              18:41:20                                        
    1UHOST                                                              
    1UPGM               CalculiX                                        
    1UVERSION           Version DEVELOPMENT                             
    1UCOMPILETIME       Thu Jun 25 17:27:28 CEST 2020                    
    1UDIR                                                               
    1UDBN                                                               
    1UMAT    1STEEL                                                     
    2C                            68                                     1
 -1        12-3.50000E+01 2.50000E+01 0.00000E+00
 -1        13-3.50000E+01-2.50000E+01 0.00000E+00
 -1        14 3.50000E+01-2.50000E+01 0.00000E+00
 -1        15 3.50000E+01 2.50000E+01 0.00000E+00
 -1        16-3.50000E+01 0.00000E+00 0.00000E+00
 -1        17 0.00000E+00-2.50000E+01 0.00000E+00
 -1        18 3.50000E+01 0.00000E+00 0.00000E+00
 -1        19 0.00000E+00 2.50000E+01 0.00000E+00
 -1        20-3.50000E+01 2.50000E+01 1.00000E+02
 -1        21-3.50000E+01-2.50000E+01 1.00000E+02
 -1        22 3.50000E+01-2.50000E+01 1.00000E+02
 -1        23 3.50000E+01 2.50000E+01 1.00000E+02
 -1        28-3.50000E+01 2.50000E+01 2.00000E+02
 -1        29-3.50000E+01-2.50000E+01 2.00000E+02
 -1        30 3.50000E+01-2.50000E+01 2.00000E+02
 -1        31 3.50000E+01 2.50000E+01 2.00000E+02
 -1        32-3.50000E+01 0.00000E+00 2.00000E+02
 -1        33 0.00000E+00-2.50000E+01 2.00000E+02
 -1        34 3.50000E+01 0.00000E+00 2.00000E+02
 -1        35 0.00000E+00 2.50000E+01 2.00000E+02
 -1        36-3.50000E+01 2.50000E+01 3.00000E+02
 -1        37-3.50000E+01-2.50000E+01 3.00000E+02
 -1        38 3.50000E+01-2.50000E+01 3.00000E+02
 -1        39 3.50000E+01 2.50000E+01 3.00000E+02
 -1        44-3.50000E+01 2.50000E+01 4.00000E+02
 -1        45-3.50000E+01-2.50000E+01 4.00000E+02
 -1        46 3.50000E+01-2.50000E+01 4.00000E+02
 -1        47 3.50000E+01 2.50000E+01 4.00000E+02
 -1        48-3.50000E+01 0.00000E+00 4.00000E+02
 -1        49 0.00000E+00-2.50000E+01 4.00000E+02
 -1        50 3.50000E+01 0.00000E+00 4.00000E+02
 -1        51 0.00000E+00 2.50000E+01 4.00000E+02
 -1        52-3.50000E+01 2.50000E+01 5.00000E+02
 -1        53-3.50000E+01-2.50000E+01 5.00000E+02
 -1        54 3.50000E+01-2.50000E+01 5.00000E+02
 -1        55 3.50000E+01 2.50000E+01 5.00000E+02
 -1        60-3.50000E+01 2.50000E+01 6.00000E+02
 -1        61-3.50000E+01-2.50000E+01 6.00000E+02
 -1        62 3.50000E+01-2.50000E+01 6.00000E+02
 -1        63 3.50000E+01 2.50000E+01 6.00000E+02
 -1        64-3.50000E+01 0.00000E+00 6.00000E+02
 -1        65 0.00000E+00-2.50000E+01 6.00000E+02
 -1        66 3.50000E+01 0.00000E+00 6.00000E+02
 -1        67 0.00000E+00 2.50000E+01 6.00000E+02
 -1        68-3.50000E+01 2.50000E+01 7.00000E+02
 -1        69-3.50000E+01-2.50000E+01 7.00000E+02
 -1        70 3.50000E+01-2.50000E+01 7.00000E+02
 -1        71 3.50000E+01 2.50000E+01 7.00000E+02
 -1        76-3.50000E+01 2.50000E+01 8.00000E+02
 -1        77-3.50000E+01-2.50000E+01 8.00000E+02
 -1        78 3.50000E+01-2.50000E+01 8.00000E+02
 -1        79 3.50000E+01 2.50000E+01 8.00000E+02
 -1        80-3.50000E+01 0.00000E+00 8.00000E+02
 -1        81 0.00000E+00-2.50000E+01 8.00000E+02
 -1        82 3.50000E+01 0.00000E+00 8.00000E+02
 -1        83 0.00000E+00 2.50000E+01 8.00000E+02
 -1        84-3.50000E+01 2.50000E+01 9.00000E+02
 -1        85-3.50000E+01-2.50000E+01 9.00000E+02
 -1        86 3.50000E+01-2.50000E+01 9.00000E+02
 -1        87 3.50000E+01 2.50000E+01 9.00000E+02
 -1        92-3.50000E+01 2.50000E+01 1.00000E+03
 -1        93-3.50000E+01-2.50000E+01 1.00000E+03
 -1        94 3.50000E+01-2.50000E+01 1.00000E+03
 -1        95 3.50000E+01 2.50000E+01 1.00000E+03
 -1        96-3.50000E+01 0.00000E+00 1.00000E+03
 -1        97 0.00000E+00-2.50000E+01 1.00000E+03
 -1        98 3.50000E+01 0.00000E+00 1.00000E+03
 -1        99 0.00000E+00 2.50000E+01 1.00000E+03
 -3
    3C                             5                                     1
 -1         1    4    0    1
 -2        12        28        29        13        15        31        30        14        20        32
 -2        21        16        19        35        33        17        23        34        22        18
 -1         2    4    0    1
 -2        28        44        45        29        31        47        46        30        36        48
 -2        37        32        35        51        49        33        39        50        38        34
 -1         3    4    0    1
 -2        44        60        61        45        47        63        62        46        52        64
 -2        53        48        51        67        65        49        55        66        54        50
 -1         4    4    0    1
 -2        60        76        77        61        63        79        78        62        68        80
 -2        69        64        67        83        81        65        71        82        70        66
 -1         5    4    0    1
 -2        76        92        93        77        79        95        94        78        84        96
 -2        85        80        83        99        97        81        87        98        86        82
 -3
    1PSTEP                         1           1           1          
  100CL  101 1.000000000          68                     0    1           1
 -4  DISP        4    1
 -5  D1          1    2    1    0
 -5  D2          1    2    2    0
 -5  D3          1    2    3    0
 -5  ALL         1    2    0    0    1ALL
 -1        12 1.10907E-03-1.16173E-14 3.68802E-15
 -1        13-1.10907E-03 1.50819E-14-3.68802E-15
 -1        14 1.10907E-03-1.46992E-14 3.68802E-15
 -1        15-1.10907E-03 1.12348E-14-3.68802E-15
 -1        16-1.78893E-17 1.73228E-15 0.00000E+00
 -1        17 2.42514E-15 1.91333E-16 0.00000E+00
 -1        18 1.78893E-17-1.73228E-15 0.00000E+00
 -1        19-2.42514E-15-1.91333E-16 0.00000E+00
 -1        20 1.13839E-03-2.24848E-02 1.10291E-02
 -1        21-1.13839E-03-2.24848E-02-1.10291E-02
 -1        22 1.13839E-03-2.24848E-02-1.10291E-02
 -1        23-1.13839E-03-2.24848E-02 1.10291E-02
 -1        28 1.14798E-03-8.89814E-02 2.20089E-02
 -1        29-1.14798E-03-8.89814E-02-2.20089E-02
 -1        30 1.14798E-03-8.89814E-02-2.20089E-02
 -1        31-1.14798E-03-8.89814E-02 2.20089E-02
 -1        32 9.23787E-13-8.84591E-02 3.12562E-13
 -1        33 9.55749E-13-8.99919E-02-2.20023E-02
 -1        34 9.24063E-13-8.84591E-02-3.07341E-13
 -1        35 8.61628E-13-8.99919E-02 2.20023E-02
 -1        36 9.83025E-04-1.98425E-01 3.21471E-02
 -1        37-9.83025E-04-1.98425E-01-3.21471E-02
 -1        38 9.83025E-04-1.98425E-01-3.21471E-02
 -1        39-9.83025E-04-1.98425E-01 3.21471E-02
 -1        44 8.06796E-04-3.45150E-01 4.06548E-02
 -1        45-8.06796E-04-3.45150E-01-4.06548E-02
 -1        46 8.06796E-04-3.45150E-01-4.06548E-02
 -1        47-8.06796E-04-3.45150E-01 4.06548E-02
 -1        48 3.47257E-12-3.44892E-01 5.64554E-13
 -1        49 3.56278E-12-3.45663E-01-4.06359E-02
 -1        50 3.47304E-12-3.44892E-01-5.54171E-13
 -1        51 3.36887E-12-3.45663E-01 4.06359E-02
 -1        52 6.77788E-04-5.22849E-01 4.77281E-02
 -1        53-6.77788E-04-5.22849E-01-4.77281E-02
 -1        54 6.77788E-04-5.22849E-01-4.77281E-02
 -1        55-6.77788E-04-5.22849E-01 4.77281E-02
 -1        60 5.54443E-04-7.26420E-01 5.35879E-02
 -1        61-5.54443E-04-7.26420E-01-5.35879E-02
 -1        62 5.54443E-04-7.26420E-01-5.35879E-02
 -1        63-5.54443E-04-7.26420E-01 5.35879E-02
 -1        64 7.18104E-12-7.26215E-01 7.23890E-13
 -1        65 7.31900E-12-7.26817E-01-5.35755E-02
 -1        66 7.18242E-12-7.26215E-01-7.09060E-13
 -1        67 7.03471E-12-7.26817E-01 5.35755E-02
 -1        68 4.10221E-04-9.50931E-01 5.81748E-02
 -1        69-4.10221E-04-9.50931E-01-5.81748E-02
 -1        70 4.10221E-04-9.50931E-01-5.81748E-02
 -1        71-4.10221E-04-9.50931E-01 5.81748E-02
 -1        76 2.89581E-04-1.19115E+00 6.14399E-02
 -1        77-2.89581E-04-1.19115E+00-6.14399E-02
 -1        78 2.89581E-04-1.19115E+00-6.14399E-02
 -1        79-2.89581E-04-1.19115E+00 6.14399E-02
 -1        80 1.15636E-11-1.19105E+00 8.09269E-13
 -1        81 1.17613E-11-1.19134E+00-6.14267E-02
 -1        82 1.15672E-11-1.19105E+00-7.93632E-13
 -1        83 1.13655E-11-1.19134E+00 6.14267E-02
 -1        84 1.20912E-04-1.44178E+00 6.33867E-02
 -1        85-1.20912E-04-1.44178E+00-6.33867E-02
 -1        86 1.20912E-04-1.44178E+00-6.33867E-02
 -1        87-1.20912E-04-1.44178E+00 6.33867E-02
 -1        92 5.45004E-06-1.69761E+00 6.40401E-02
 -1        93-5.45000E-06-1.69761E+00-6.40401E-02
 -1        94 5.45004E-06-1.69761E+00-6.40401E-02
 -1        95-5.45000E-06-1.69761E+00 6.40401E-02
 -1        96 1.62445E-11-1.69761E+00 8.30579E-13
 -1        97 1.64672E-11-1.69758E+00-6.40221E-02
 -1        98 1.62488E-11-1.69761E+00-8.16177E-13
 -1        99 1.60270E-11-1.69758E+00 6.40221E-02
 -3
    1PSTEP                         2           1           1          
  100CL  101 1.000000000          68                     0    1           1
 -4  STRESS      6    1
 -5  SXX         1    4    1    1
 -5  SYY         1    4    2    2
 -5  SZZ         1    4    3    3
 -5  SXY         1    4    1    2
 -5  SYZ         1    4    2    3
 -5  SZX         1    4    3    1
 -1        12 1.46022E+00 3.17660E+00 9.12844E+00 1.20147E+00-1.14451E-01 1.05495E-02
 -1        13-1.46022E+00-3.17660E+00-9.12844E+00 1.20147E+00-1.14451E-01-1.05495E-02
 -1        14-1.46022E+00-3.17660E+00-9.12844E+00-1.20147E+00-1.14451E-01 1.05495E-02
 -1        15 1.46022E+00 3.17660E+00 9.12844E+00-1.20147E+00-1.14451E-01-1.05495E-02
 -1        16 4.10271E-11 9.25660E-12 1.28532E-10 1.20147E+00-1.14451E-01 3.09209E-12
 -1        17-1.46022E+00-3.17660E+00-9.12844E+00-1.24835E-11-1.14451E-01 1.03177E-11
 -1        18-4.10355E-11-9.10427E-12-1.26645E-10-1.20147E+00-1.14451E-01 2.82742E-12
 -1        19 1.46022E+00 3.17660E+00 9.12844E+00 1.02484E-11-1.14451E-01-4.39823E-12
 -1        20 5.44113E-01 1.16530E+00 8.21575E+00 4.45129E-01-1.13160E-01 9.98578E-05
 -1        21-5.44113E-01-1.16530E+00-8.21575E+00 4.45129E-01-1.13160E-01-9.98578E-05
 -1        22-5.44113E-01-1.16530E+00-8.21575E+00-4.45129E-01-1.13160E-01 9.98578E-05
 -1        23 5.44113E-01 1.16530E+00 8.21575E+00-4.45129E-01-1.13160E-01-9.98578E-05
 -1        28-3.68624E-01-8.44789E-01 7.30371E+00-3.12725E-01-1.35436E-01-3.17604E-02
 -1        29 3.68624E-01 8.44789E-01-7.30371E+00-3.12725E-01-1.35436E-01 3.17604E-02
 -1        30 3.68624E-01 8.44789E-01-7.30371E+00 3.12725E-01-1.35436E-01-3.17604E-02
 -1        31-3.68624E-01-8.44789E-01 7.30371E+00 3.12725E-01-1.35436E-01 3.17604E-02
 -1        32-1.10842E-11-3.03532E-12 1.01401E-10-3.12725E-01-1.35436E-01 2.85673E-12
 -1        33 3.68624E-01 8.44789E-01-7.30371E+00 2.88998E-12-1.35436E-01 1.11389E-11
 -1        34 1.08897E-11 2.84914E-12-9.96709E-11 3.12725E-01-1.35436E-01 2.75633E-12
 -1        35-3.68624E-01-8.44789E-01 7.30371E+00-2.93902E-12-1.35436E-01-5.52587E-12
 -1        36-1.37556E-01-3.09197E-01 6.39165E+00-1.15488E-01-1.56653E-01-6.55566E-02
 -1        37 1.37556E-01 3.09197E-01-6.39165E+00-1.15488E-01-1.56653E-01 6.55566E-02
 -1        38 1.37556E-01 3.09197E-01-6.39165E+00 1.15488E-01-1.56653E-01-6.55566E-02
 -1        39-1.37556E-01-3.09197E-01 6.39165E+00 1.15488E-01-1.56653E-01 6.55566E-02
 -1        44 9.54169E-02 2.26126E-01 5.47680E+00 8.02267E-02-1.48550E-01-7.12083E-02
 -1        45-9.54169E-02-2.26126E-01-5.47680E+00 8.02267E-02-1.48550E-01 7.12083E-02
 -1        46-9.54169E-02-2.26126E-01-5.47680E+00-8.02267E-02-1.48550E-01-7.12083E-02
 -1        47 9.54169E-02 2.26126E-01 5.47680E+00-8.02267E-02-1.48550E-01 7.12083E-02
 -1        48 2.67947E-12 3.19279E-13 7.19682E-11 8.02267E-02-1.48550E-01 2.95822E-12
 -1        49-9.54169E-02-2.26126E-01-5.47680E+00-7.80775E-13-1.48550E-01 1.14181E-11
 -1        50-2.89658E-12-1.27831E-12-7.03464E-11-8.02267E-02-1.48550E-01 2.82271E-12
 -1        51 9.54169E-02 2.26126E-01 5.47680E+00 1.09851E-12-1.48550E-01-5.63718E-12
 -1        52 3.55976E-02 8.15851E-02 4.56195E+00 3.05459E-02-1.44033E-01-5.80292E-02
 -1        53-3.55976E-02-8.15851E-02-4.56195E+00 3.05459E-02-1.44033E-01 5.80292E-02
 -1        54-3.55976E-02-8.15851E-02-4.56195E+00-3.05459E-02-1.44033E-01-5.80292E-02
 -1        55 3.55976E-02 8.15851E-02 4.56195E+00-3.05459E-02-1.44033E-01 5.80292E-02
 -1        60-2.25764E-02-6.15624E-02 3.65010E+00-1.93112E-02-1.46382E-01-5.63630E-02
 -1        61 2.25764E-02 6.15624E-02-3.65010E+00-1.93112E-02-1.46382E-01 5.63630E-02
 -1        62 2.25764E-02 6.15624E-02-3.65010E+00 1.93112E-02-1.46382E-01-5.63630E-02
 -1        63-2.25764E-02-6.15624E-02 3.65010E+00 1.93112E-02-1.46382E-01 5.63630E-02
 -1        64-2.65957E-13 1.55824E-12 4.15451E-11-1.93112E-02-1.46382E-01 2.46800E-12
 -1        65 2.25764E-02 6.15624E-02-3.65010E+00-8.51537E-13-1.46382E-01 1.17782E-11
 -1        66 9.38027E-13 1.48919E-12-3.93426E-11 1.93112E-02-1.46382E-01 2.05661E-12
 -1        67-2.25764E-02-6.15624E-02 3.65010E+00-1.19251E-12-1.46382E-01-7.25359E-12
 -1        68-1.28973E-02-2.02275E-02 2.73825E+00-9.96118E-03-1.47346E-01-5.53890E-02
 -1        69 1.28973E-02 2.02275E-02-2.73825E+00-9.96118E-03-1.47346E-01 5.53890E-02
 -1        70 1.28973E-02 2.02275E-02-2.73825E+00 9.96118E-03-1.47346E-01-5.53890E-02
 -1        71-1.28973E-02-2.02275E-02 2.73825E+00 9.96118E-03-1.47346E-01 5.53890E-02
 -1        76 9.12594E-04 2.22364E-02 1.82603E+00-2.71244E-03-1.48158E-01-6.12702E-02
 -1        77-9.12594E-04-2.22364E-02-1.82603E+00-2.71244E-03-1.48158E-01 6.12702E-02
 -1        78-9.12594E-04-2.22364E-02-1.82603E+00 2.71244E-03-1.48158E-01-6.12702E-02
 -1        79 9.12594E-04 2.22364E-02 1.82603E+00 2.71244E-03-1.48158E-01 6.12702E-02
 -1        80 1.25381E-14 2.86483E-12 1.80895E-11-2.71244E-03-1.48158E-01 2.43809E-12
 -1        81-9.12594E-04-2.22364E-02-1.82603E+00 1.70610E-12-1.48158E-01 8.24110E-12
 -1        82-9.25841E-13-6.92798E-12-2.01348E-11 2.71244E-03-1.48158E-01 2.54590E-12
 -1        83 9.12594E-04 2.22364E-02 1.82603E+00 7.00676E-13-1.48158E-01-3.25711E-12
 -1        84 1.41997E-02-1.27520E-03 9.13807E-01 1.25581E-02-1.48193E-01-6.22670E-02
 -1        85-1.41997E-02 1.27520E-03-9.13807E-01 1.25581E-02-1.48193E-01 6.22670E-02
 -1        86-1.41997E-02 1.27520E-03-9.13807E-01-1.25581E-02-1.48193E-01-6.22670E-02
 -1        87 1.41997E-02-1.27520E-03 9.13807E-01-1.25581E-02-1.48193E-01 6.22670E-02
 -1        92 1.64341E-02-2.82432E-02 1.11809E-03 3.31459E-02-1.47267E-01-5.16296E-02
 -1        93-1.64341E-02 2.82432E-02-1.11809E-03 3.31459E-02-1.47267E-01 5.16296E-02
 -1        94-1.64341E-02 2.82432E-02-1.11809E-03-3.31459E-02-1.47267E-01-5.16296E-02
 -1        95 1.64341E-02-2.82432E-02 1.11809E-03-3.31459E-02-1.47267E-01 5.16296E-02
 -1        96-2.26654E-13-3.56697E-13-2.76071E-12 3.31459E-02-1.47267E-01 4.77725E-13
 -1        97-1.64341E-02 2.82432E-02-1.11809E-03 2.30560E-12-1.47267E-01 4.46693E-12
 -1        98-1.58083E-12-1.98423E-13 1.92385E-12-3.31459E-02-1.47267E-01 1.21347E-12
 -1        99 1.64341E-02-2.82432E-02 1.11809E-03 1.19031E-12-1.47267E-01-2.77573E-12
 -3
    1PSTEP                         3           1           2          
    1PGM                1.000000E+00                                  
    1PGK                4.546011E+04                                  
    1PHID                         -1                                  
    1PSUBC                         0                                  
    1PMODE                         1                                  
  100CL  102 33.93402349          68                     2    2MODAL      1
 -4  DISP        4    1
 -5  D1          1    2    1    0
 -5  D2          1    2    2    0
 -5  D3          1    2    3    0
 -5  ALL         1    2    0    0    1ALL
 -1        12 2.08742E-02-2.80855E-13 4.33811E-14
 -1        13-2.08742E-02 3.17487E-13-4.33811E-14
 -1        14 2.08742E-02-3.16913E-13 4.33811E-14
 -1        15-2.08742E-02 2.80281E-13-4.33811E-14
 -1        16 4.96131E-16 1.83161E-14 0.00000E+00
 -1        17 2.56427E-14 2.87097E-16 0.00000E+00
 -1        18-4.96131E-16-1.83161E-14 0.00000E+00
 -1        19-2.56427E-14-2.87097E-16 0.00000E+00
 -1        20 2.06440E-02-4.23668E-01 2.04314E-01
 -1        21-2.06440E-02-4.23668E-01-2.04314E-01
 -1        22 2.06440E-02-4.23668E-01-2.04314E-01
 -1        23-2.06440E-02-4.23668E-01 2.04314E-01
 -1        28 1.97445E-02-1.64429E+00 3.98624E-01
 -1        29-1.97445E-02-1.64429E+00-3.98624E-01
 -1        30 1.97445E-02-1.64429E+00-3.98624E-01
 -1        31-1.97445E-02-1.64429E+00 3.98624E-01
 -1        32 1.92315E-11-1.63508E+00 6.43696E-12
 -1        33 1.96414E-11-1.66208E+00-3.98377E-01
 -1        34 1.92315E-11-1.63508E+00-6.32597E-12
 -1        35 1.82029E-11-1.66208E+00 3.98377E-01
 -1        36 1.58662E-02-3.60538E+00 5.68136E-01
 -1        37-1.58662E-02-3.60538E+00-5.68136E-01
 -1        38 1.58662E-02-3.60538E+00-5.68136E-01
 -1        39-1.58662E-02-3.60538E+00 5.68136E-01
 -1        44 1.16167E-02-6.16625E+00 6.98835E-01
 -1        45-1.16167E-02-6.16625E+00-6.98835E-01
 -1        46 1.16167E-02-6.16625E+00-6.98835E-01
 -1        47-1.16167E-02-6.16625E+00 6.98835E-01
 -1        48 7.11218E-11-6.16266E+00 1.13659E-11
 -1        49 7.24407E-11-6.17342E+00-6.98409E-01
 -1        50 7.11173E-11-6.16266E+00-1.11466E-11
 -1        51 6.95417E-11-6.17342E+00 6.98409E-01
 -1        52 8.78602E-03-9.17699E+00 7.95944E-01
 -1        53-8.78602E-03-9.17699E+00-7.95944E-01
 -1        54 8.78602E-03-9.17699E+00-7.95944E-01
 -1        55-8.78602E-03-9.17699E+00 7.95944E-01
 -1        60 6.00356E-03-1.25212E+01 8.66115E-01
 -1        61-6.00356E-03-1.25212E+01-8.66115E-01
 -1        62 6.00356E-03-1.25212E+01-8.66115E-01
 -1        63-6.00356E-03-1.25212E+01 8.66115E-01
 -1        64 1.44679E-10-1.25190E+01 1.41293E-11
 -1        65 1.46425E-10-1.25256E+01-8.65877E-01
 -1        66 1.44701E-10-1.25190E+01-1.38244E-11
 -1        67 1.42807E-10-1.25256E+01 8.65877E-01
 -1        68 3.62758E-03-1.60934E+01 9.11649E-01
 -1        69-3.62758E-03-1.60934E+01-9.11649E-01
 -1        70 3.62758E-03-1.60934E+01-9.11649E-01
 -1        71-3.62758E-03-1.60934E+01 9.11649E-01
 -1        76 1.62639E-03-1.98036E+01 9.36129E-01
 -1        77-1.62639E-03-1.98036E+01-9.36129E-01
 -1        78 1.62639E-03-1.98036E+01-9.36129E-01
 -1        79-1.62639E-03-1.98036E+01 9.36129E-01
 -1        80 2.28438E-10-1.98031E+01 1.51800E-11
 -1        81 2.30919E-10-1.98045E+01-9.35952E-01
 -1        82 2.28490E-10-1.98031E+01-1.48401E-11
 -1        83 2.25985E-10-1.98045E+01 9.35952E-01
 -1        84 4.88708E-04-2.35741E+01 9.45436E-01
 -1        85-4.88707E-04-2.35741E+01-9.45436E-01
 -1        86 4.88708E-04-2.35741E+01-9.45436E-01
 -1        87-4.88707E-04-2.35741E+01 9.45436E-01
 -1        92-8.92579E-06-2.73632E+01 9.46908E-01
 -1        93 8.92642E-06-2.73632E+01-9.46908E-01
 -1        94-8.92578E-06-2.73632E+01-9.46908E-01
 -1        95 8.92641E-06-2.73632E+01 9.46908E-01
 -1        96 3.14785E-10-2.73633E+01 1.52967E-11
 -1        97 3.17556E-10-2.73630E+01-9.46900E-01
 -1        98 3.14831E-10-2.73633E+01-1.49324E-11
 -1        99 3.12058E-10-2.73630E+01 9.46900E-01
 -3
    1PSTEP                         4           1           2          
    1PGM                1.000000E+00                                  
    1PGK                7.648819E+04                                  
    1PHID                         -1                                  
    1PSUBC                         0                                  
    1PMODE                         2                                  
  100CL  103 44.01668533          68                     2    3MODAL      1
 -4  DISP        4    1
 -5  D1          1    2    1    0
 -5  D2          1    2    2    0
 -5  D3          1    2    3    0
 -5  ALL         1    2    0    0    1ALL
 -1        12-2.64566E-13-2.72450E-02-1.91253E-14
 -1        13 2.73642E-13 2.72450E-02 1.91253E-14
 -1        14-3.01759E-13-2.72450E-02-1.91253E-14
 -1        15 2.92683E-13 2.72450E-02 1.91253E-14
 -1        16 4.53804E-15-1.00416E-14 0.00000E+00
 -1        17-1.40582E-14 3.38791E-15 0.00000E+00
 -1        18-4.53804E-15 1.00416E-14 0.00000E+00
 -1        19 1.40582E-14-3.38791E-15 0.00000E+00
 -1        20 4.45841E-01-2.29658E-02 2.90356E-01
 -1        21 4.45841E-01 2.29658E-02 2.90356E-01
 -1        22 4.45841E-01-2.29658E-02-2.90356E-01
 -1        23 4.45841E-01 2.29658E-02-2.90356E-01
 -1        28 1.69116E+00-1.78845E-02 5.59735E-01
 -1        29 1.69116E+00 1.78845E-02 5.59735E-01
 -1        30 1.69116E+00-1.78845E-02-5.59735E-01
 -1        31 1.69116E+00 1.78845E-02-5.59735E-01
 -1        32 1.70021E+00 2.04139E-11 5.59714E-01
 -1        33 1.67339E+00 2.06146E-11 4.87355E-12
 -1        34 1.70021E+00 2.01608E-11-5.59714E-01
 -1        35 1.67339E+00 2.06049E-11-4.87266E-12
 -1        36 3.65648E+00-1.50188E-02 7.92125E-01
 -1        37 3.65648E+00 1.50188E-02 7.92125E-01
 -1        38 3.65648E+00-1.50188E-02-7.92125E-01
 -1        39 3.65648E+00 1.50188E-02-7.92125E-01
 -1        44 6.21068E+00-1.18764E-02 9.72658E-01
 -1        45 6.21068E+00 1.18764E-02 9.72658E-01
 -1        46 6.21068E+00-1.18764E-02-9.72658E-01
 -1        47 6.21068E+00 1.18764E-02-9.72658E-01
 -1        48 6.21425E+00 7.48841E-11 9.72330E-01
 -1        49 6.20370E+00 7.47704E-11 8.22148E-12
 -1        50 6.21425E+00 7.44258E-11-9.72330E-01
 -1        51 6.20370E+00 7.47598E-11-8.22917E-12
 -1        52 9.21171E+00-8.83889E-03 1.10749E+00
 -1        53 9.21171E+00 8.83889E-03 1.10749E+00
 -1        54 9.21171E+00-8.83889E-03-1.10749E+00
 -1        55 9.21171E+00 8.83889E-03-1.10749E+00
 -1        60 1.25421E+01-5.81814E-03 1.20460E+00
 -1        61 1.25421E+01 5.81814E-03 1.20460E+00
 -1        62 1.25421E+01-5.81814E-03-1.20460E+00
 -1        63 1.25421E+01 5.81814E-03-1.20460E+00
 -1        64 1.25444E+01 1.48363E-10 1.20448E+00
 -1        65 1.25378E+01 1.47962E-10 9.74998E-12
 -1        66 1.25444E+01 1.47438E-10-1.20448E+00
 -1        67 1.25378E+01 1.47946E-10-9.76397E-12
 -1        68 1.60961E+01-3.53749E-03 1.26746E+00
 -1        69 1.60961E+01 3.53749E-03 1.26746E+00
 -1        70 1.60961E+01-3.53749E-03-1.26746E+00
 -1        71 1.60961E+01 3.53749E-03-1.26746E+00
 -1        76 1.97847E+01-1.62853E-03 1.30135E+00
 -1        77 1.97847E+01 1.62853E-03 1.30135E+00
 -1        78 1.97847E+01-1.62853E-03-1.30135E+00
 -1        79 1.97847E+01 1.62853E-03-1.30135E+00
 -1        80 1.97852E+01 2.29033E-10 1.30123E+00
 -1        81 1.97838E+01 2.28347E-10 1.01785E-11
 -1        82 1.97852E+01 2.27666E-10-1.30123E+00
 -1        83 1.97838E+01 2.28339E-10-1.01996E-11
 -1        84 2.35319E+01-4.74943E-04 1.31431E+00
 -1        85 2.35319E+01 4.74944E-04 1.31431E+00
 -1        86 2.35319E+01-4.74943E-04-1.31431E+00
 -1        87 2.35319E+01 4.74944E-04-1.31431E+00
 -1        92 2.72954E+01 2.92693E-05 1.31638E+00
 -1        93 2.72954E+01-2.92686E-05 1.31638E+00
 -1        94 2.72954E+01 2.92693E-05-1.31638E+00
 -1        95 2.72954E+01-2.92686E-05-1.31638E+00
 -1        96 2.72953E+01 3.10175E-10 1.31639E+00
 -1        97 2.72955E+01 3.09415E-10 1.00389E-11
 -1        98 2.72953E+01 3.08667E-10-1.31639E+00
 -1        99 2.72955E+01 3.09416E-10-1.00631E-11
 -3
    1PSTEP                         5           1           2          
    1PGM                1.000000E+00                                  
    1PGK                1.723986E+06                                  
    1PHID                         -1                                  
    1PSUBC                         0                                  
    1PMODE                         3                                  
  100CL  104 208.9714593          68                     2    4MODAL      1
 -4  DISP        4    1
 -5  D1          1    2    1    0
 -5  D2          1    2    2    0
 -5  D3          1    2    3    0
 -5  ALL         1    2    0    0    1ALL
 -1        12 1.24963E-01-4.21885E-15-3.65541E-14
 -1        13-1.24963E-01-3.90001E-14 3.65541E-14
 -1        14 1.24963E-01 5.40366E-14-3.65541E-14
 -1        15-1.24963E-01-1.08197E-14 3.65541E-14
 -1        16-4.85723E-15-2.16077E-14 0.00000E+00
 -1        17-3.02536E-14 7.51829E-15 0.00000E+00
 -1        18 4.85723E-15 2.16077E-14 0.00000E+00
 -1        19 3.02536E-14-7.51829E-15 0.00000E+00
 -1        20 7.72583E-02-2.51465E+00 1.02025E+00
 -1        21-7.72583E-02-2.51465E+00-1.02025E+00
 -1        22 7.72583E-02-2.51465E+00-1.02025E+00
 -1        23-7.72583E-02-2.51465E+00 1.02025E+00
 -1        28 1.75687E-02-7.98411E+00 1.48846E+00
 -1        29-1.75687E-02-7.98411E+00-1.48846E+00
 -1        30 1.75687E-02-7.98411E+00-1.48846E+00
 -1        31-1.75687E-02-7.98411E+00 1.48846E+00
 -1        32-9.19820E-13-7.96451E+00-1.37945E-13
 -1        33-8.99281E-13-8.02114E+00-1.48060E+00
 -1        34-9.02833E-13-7.96451E+00 1.68365E-13
 -1        35-9.25482E-13-8.02114E+00 1.48060E+00
 -1        36-4.14718E-02-1.41182E+01 1.36546E+00
 -1        37 4.14718E-02-1.41182E+01-1.36546E+00
 -1        38-4.14718E-02-1.41182E+01-1.36546E+00
 -1        39 4.14718E-02-1.41182E+01 1.36546E+00
 -1        44-9.47974E-02-1.86082E+01 6.99308E-01
 -1        45 9.47974E-02-1.86082E+01-6.99308E-01
 -1        46-9.47974E-02-1.86082E+01-6.99308E-01
 -1        47 9.47974E-02-1.86082E+01 6.99308E-01
 -1        48-9.26370E-13-1.86476E+01 2.26652E-13
 -1        49-9.38361E-13-1.85327E+01-6.95638E-01
 -1        50-9.80549E-13-1.86476E+01-1.89168E-13
 -1        51-1.03118E-12-1.85327E+01 6.95638E-01
 -1        52-1.09353E-01-1.95226E+01-2.91905E-01
 -1        53 1.09353E-01-1.95226E+01 2.91905E-01
 -1        54-1.09353E-01-1.95226E+01 2.91905E-01
 -1        55 1.09353E-01-1.95226E+01-2.91905E-01
 -1        60-1.08586E-01-1.62465E+01-1.35113E+00
 -1        61 1.08586E-01-1.62465E+01 1.35113E+00
 -1        62-1.08586E-01-1.62465E+01 1.35113E+00
 -1        63 1.08586E-01-1.62465E+01-1.35113E+00
 -1        64 1.20259E-12-1.62864E+01 4.21108E-13
 -1        65 3.84581E-13-1.61690E+01 1.34917E+00
 -1        66 1.23590E-12-1.62864E+01-4.31655E-13
 -1        67 2.07256E-12-1.61690E+01-1.34917E+00
 -1        68-8.14913E-02-8.82288E+00-2.26475E+00
 -1        69 8.14913E-02-8.82288E+00 2.26475E+00
 -1        70-8.14913E-02-8.82288E+00 2.26475E+00
 -1        71 8.14913E-02-8.82288E+00-2.26475E+00
 -1        76-4.89185E-02 1.72347E+00-2.89246E+00
 -1        77 4.89185E-02 1.72347E+00 2.89246E+00
 -1        78-4.89185E-02 1.72347E+00 2.89246E+00
 -1        79 4.89185E-02 1.72347E+00-2.89246E+00
 -1        80 4.17285E-12 1.70659E+00 6.03184E-13
 -1        81 2.62679E-12 1.75647E+00 2.88864E+00
 -1        82 4.12071E-12 1.70659E+00-6.29385E-13
 -1        83 5.49638E-12 1.75647E+00-2.88864E+00
 -1        84-1.57262E-02 1.40776E+01-3.18211E+00
 -1        85 1.57262E-02 1.40776E+01 3.18211E+00
 -1        86-1.57262E-02 1.40776E+01 3.18211E+00
 -1        87 1.57262E-02 1.40776E+01-3.18211E+00
 -1        92-1.12029E-03 2.70547E+01-3.23852E+00
 -1        93 1.12029E-03 2.70547E+01 3.23852E+00
 -1        94-1.12029E-03 2.70547E+01 3.23852E+00
 -1        95 1.12029E-03 2.70547E+01-3.23852E+00
 -1        96 8.65086E-12 2.70579E+01 7.80043E-13
 -1        97 6.72529E-12 2.70498E+01 3.23710E+00
 -1        98 8.57714E-12 2.70579E+01-8.88511E-13
 -1        99 1.05809E-11 2.70498E+01-3.23710E+00
 -3
    1PSTEP                         6           1           2          
    1PGM                1.000000E+00                                  
    1PGK                2.823084E+06                                  
    1PHID                         -1                                  
    1PSUBC                         0                                  
    1PMODE                         4                                  
  100CL  105 267.4126980          68                     2    5MODAL      1
 -4  DISP        4    1
 -5  D1          1    2    1    0
 -5  D2          1    2    2    0
 -5  D3          1    2    3    0
 -5  ALL         1    2    0    0    1ALL
 -1        12-1.42247E-15-1.59007E-01-2.44804E-14
 -1        13 3.26961E-14 1.59007E-01 2.44804E-14
 -1        14-7.19702E-14-1.59007E-01-2.44804E-14
 -1        15 4.06966E-14 1.59007E-01 2.44804E-14
 -1        16 1.56368E-14-1.40265E-14 0.00000E+00
 -1        17-1.96371E-14 8.46545E-15 0.00000E+00
 -1        18-1.56368E-14 1.40265E-14 0.00000E+00
 -1        19 1.96371E-14-8.46545E-15 0.00000E+00
 -1        20 2.68602E+00-8.86569E-02 1.40287E+00
 -1        21 2.68602E+00 8.86569E-02 1.40287E+00
 -1        22 2.68602E+00-8.86569E-02-1.40287E+00
 -1        23 2.68602E+00 8.86569E-02-1.40287E+00
 -1        28 8.22302E+00-5.47951E-03 2.01526E+00
 -1        29 8.22302E+00 5.47951E-03 2.01526E+00
 -1        30 8.22302E+00-5.47951E-03-2.01526E+00
 -1        31 8.22302E+00 5.47951E-03-2.01526E+00
 -1        32 8.24090E+00-3.44613E-13 2.01138E+00
 -1        33 8.18778E+00-3.58824E-13-5.90639E-14
 -1        34 8.24090E+00-3.69482E-13-2.01138E+00
 -1        35 8.18778E+00-3.80140E-13 1.37224E-13
 -1        36 1.42454E+01 4.60487E-02 1.81588E+00
 -1        37 1.42454E+01-4.60487E-02 1.81588E+00
 -1        38 1.42454E+01 4.60487E-02-1.81588E+00
 -1        39 1.42454E+01-4.60487E-02-1.81588E+00
 -1        44 1.85595E+01 8.94861E-02 8.99382E-01
 -1        45 1.85595E+01-8.94861E-02 8.99382E-01
 -1        46 1.85595E+01 8.94861E-02-8.99382E-01
 -1        47 1.85595E+01-8.94861E-02-8.99382E-01
 -1        48 1.85215E+01-1.64579E-12 8.96835E-01
 -1        49 1.86344E+01-1.57030E-12-1.12105E-13
 -1        50 1.85215E+01-1.52767E-12-8.96835E-01
 -1        51 1.86344E+01-1.58984E-12 2.45581E-13