
                        S T E P       1


                                INCREMENT     1


 displacements (vx,vy,vz) for set NALL and time  0.1000000E+01

         1  1.000000E+00  0.000000E+00  0.000000E+00
         2  1.000000E+00  1.046610E+05  0.000000E+00
         3  1.000000E+00  0.000000E+00  0.000000E+00
         4  1.000000E+00  1.000003E+05  0.000000E+00
         5  7.018726E-01  0.000000E+00  0.000000E+00
         6  7.018726E-01  1.000000E+05  0.000000E+00
         7  7.018726E-01  0.000000E+00  0.000000E+00
         8  2.981274E-01  0.000000E+00  0.000000E+00
         9  2.981274E-01  1.000000E+05  0.000000E+00
        10  2.981274E-01  0.000000E+00  0.000000E+00

 mass flows for set NALL and time  0.1000000E+01

         1  1.000000E+00
         2  1.000000E+00
         3  1.000000E+00
         4  1.000000E+00
         5  7.018726E-01
         6  7.018726E-01
         7  7.018726E-01
         8  2.981274E-01
         9  2.981274E-01
        10  2.981274E-01

 network pressures (total pressure for gases, static pressure for liquids and fluid depth for channels) for set NALL and time  0.1000000E+01

         1  0.000000E+00
         2  1.046610E+05
         3  0.000000E+00
         4  1.000003E+05
         5  0.000000E+00
         6  1.000000E+05
         7  0.000000E+00
         8  0.000000E+00
         9  1.000000E+05
        10  0.000000E+00
