
                        S T E P       1


                                INCREMENT     1


 displacements (vx,vy,vz) for set NALL and time  0.1000000E+01

         1  3.000000E+06  0.000000E+00  0.000000E+00
         2  3.000000E+06  2.600049E+00  0.000000E+00
         4  3.000000E+06  0.000000E+00  0.000000E+00
         6  3.000000E+06  2.141333E+00  9.716829E-01
         7  3.000000E+06  0.000000E+00  0.000000E+00
         8  3.000000E+06  2.163489E+00  9.716829E-01
         9  3.000000E+06  0.000000E+00  0.000000E+00
        10  3.000000E+06  1.024101E+00  9.716829E-01
        11  3.000000E+06  0.000000E+00  0.000000E+00
        12  3.000000E+06  9.716824E-01  9.716829E-01
        13  3.000000E+06  0.000000E+00  0.000000E+00
        14  3.000000E+06  5.127449E-01  9.716829E-01
        15  3.000000E+06  0.000000E+00  0.000000E+00
        16  3.000000E+06  5.862916E-01  9.716829E-01
        17  3.000000E+06  0.000000E+00  0.000000E+00
        18  3.000000E+06  5.000000E-01  0.000000E+00
        19  3.000000E+06  0.000000E+00  0.000000E+00

 mass flows for set NALL and time  0.1000000E+01

         1  3.000000E+06
         2  3.000000E+06
         4  3.000000E+06
         6  3.000000E+06
         7  3.000000E+06
         8  3.000000E+06
         9  3.000000E+06
        10  3.000000E+06
        11  3.000000E+06
        12  3.000000E+06
        13  3.000000E+06
        14  3.000000E+06
        15  3.000000E+06
        16  3.000000E+06
        17  3.000000E+06
        18  3.000000E+06
        19  3.000000E+06

 network pressures (total pressure for gases, static pressure for liquids and fluid depth for channels) for set NALL and time  0.1000000E+01

         1  0.000000E+00
         2  2.600049E+00
         4  0.000000E+00
         6  2.141333E+00
         7  0.000000E+00
         8  2.163489E+00
         9  0.000000E+00
        10  1.024101E+00
        11  0.000000E+00
        12  9.716824E-01
        13  0.000000E+00
        14  5.127449E-01
        15  0.000000E+00
        16  5.862916E-01
        17  0.000000E+00
        18  5.000000E-01
        19  0.000000E+00
