    1C
    1UUSER                                                              
    1UDATE              01.march.2024                                   
    1UTIME              12:22:48                                        
    1UHOST                                                              
    1UPGM               CalculiX                                        
    1UVERSION           Version DEVELOPMENT                             
    1UCOMPILETIME       Wed Feb 28 20:22:03 CET 2024                    
    1UDIR                                                               
    1UDBN                                                               
    1UMAT    1EL                                                        
    1UMAT    2SI1                                                       
    2C                            16                                     1
 -1         1 1.00000E+00 1.00000E+00-1.49012E-08
 -1         2 1.00000E+00 0.00000E+00-1.49012E-08
 -1         3 1.00000E+00 0.00000E+00 1.00000E+00
 -1         4 1.00000E+00 1.00000E+00 1.00000E+00
 -1         5-7.45058E-09 1.00000E+00-1.49012E-08
 -1         6-7.45058E-09 0.00000E+00-1.49012E-08
 -1         7-7.45058E-09 0.00000E+00 1.00000E+00
 -1         8-7.45058E-09 1.00000E+00 1.00000E+00
 -1         9 5.00000E-01 6.41421E-01 1.00000E+00
 -1        10 6.41421E-01 5.00000E-01 1.00000E+00
 -1        11 6.41421E-01 5.00000E-01 1.20000E+00
 -1        12 5.00000E-01 6.41421E-01 1.20000E+00
 -1        13 3.58579E-01 5.00000E-01 1.00000E+00
 -1        14 5.00000E-01 3.58579E-01 1.00000E+00
 -1        15 5.00000E-01 3.58579E-01 1.20000E+00
 -1        16 3.58579E-01 5.00000E-01 1.20000E+00
 -3
    3C                             2                                     1
 -1         1    1    0    1
 -2         1         2         3         4         5         6         7         8
 -1         2    1    0    1
 -2         9        10        11        12        13        14        15        16
 -3
    1PSTEP                         1           1           1          
  100CL  101 1.00000E-20          16                     0    1           1
 -4  DISP        4    1
 -5  D1          1    2    1    0
 -5  D2          1    2    2    0
 -5  D3          1    2    3    0
 -5  ALL         1    2    0    0    1ALL
 -1         1 0.00000E+00 0.00000E+00 0.00000E+00
 -1         2 0.00000E+00 0.00000E+00 0.00000E+00
 -1         3 2.88100E-13 4.57429E-18-1.90482E-05
 -1         4 2.88100E-13 4.56800E-18-1.90482E-05
 -1         5 0.00000E+00 0.00000E+00 0.00000E+00
 -1         6 0.00000E+00 0.00000E+00 0.00000E+00
 -1         7 2.88100E-13 4.65780E-18-1.90482E-05
 -1         8 2.88100E-13 4.65151E-18-1.90482E-05
 -1         9 1.67428E-14 4.98028E-17-2.90482E-05
 -1        10 1.67480E-14 5.50665E-17-2.90482E-05
 -1        11 0.00000E+00 0.00000E+00-1.24355E-04
 -1        12 0.00000E+00 0.00000E+00-1.24355E-04
 -1        13 1.67375E-14 5.50431E-17-2.90482E-05
 -1        14 1.67428E-14 6.03102E-17-2.90482E-05
 -1        15 0.00000E+00 0.00000E+00-1.24355E-04
 -1        16 0.00000E+00 0.00000E+00-1.24355E-04
 -3
    1PSTEP                         2           1           2          
  100CL  102 1.66273E-08          16                     1    2           1
 -4  DISP        4    1
 -5  D1          1    2    1    0
 -5  D2          1    2    2    0
 -5  D3          1    2    3    0
 -5  ALL         1    2    0    0    1ALL
 -1         1 0.00000E+00 0.00000E+00 0.00000E+00
 -1         2 0.00000E+00 0.00000E+00 0.00000E+00
 -1         3 2.88100E-13 4.57429E-18-1.90482E-05
 -1         4 2.88100E-13 4.56800E-18-1.90482E-05
 -1         5 0.00000E+00 0.00000E+00 0.00000E+00
 -1         6 0.00000E+00 0.00000E+00 0.00000E+00
 -1         7 2.88100E-13 4.65780E-18-1.90482E-05
 -1         8 2.88100E-13 4.65151E-18-1.90482E-05
 -1         9 1.67428E-14 4.98028E-17-2.90482E-05
 -1        10 1.67480E-14 5.50665E-17-2.90482E-05
 -1        11 0.00000E+00 0.00000E+00-1.77554E-04
 -1        12 0.00000E+00 0.00000E+00-1.77554E-04
 -1        13 1.67375E-14 5.50431E-17-2.90482E-05
 -1        14 1.67428E-14 6.03102E-17-2.90482E-05
 -1        15 0.00000E+00 0.00000E+00-1.77554E-04
 -1        16 0.00000E+00 0.00000E+00-1.77554E-04
 -3
    1PSTEP                         3           2           2          
  100CL  103 3.32545E-08          16                     1    3           1
 -4  DISP        4    1
 -5  D1          1    2    1    0
 -5  D2          1    2    2    0
 -5  D3          1    2    3    0
 -5  ALL         1    2    0    0    1ALL
 -1         1 0.00000E+00 0.00000E+00 0.00000E+00
 -1         2 0.00000E+00 0.00000E+00 0.00000E+00
 -1         3 4.54862E-13 4.64322E-18-2.78749E-05
 -1         4 4.54862E-13 4.57548E-18-2.78749E-05
 -1         5 0.00000E+00 0.00000E+00 0.00000E+00
 -1         6 0.00000E+00 0.00000E+00 0.00000E+00
 -1         7 4.54862E-13 4.64047E-18-2.78749E-05
 -1         8 4.54862E-13 4.57165E-18-2.78749E-05
 -1         9 1.83479E-13 5.12090E-17-3.78759E-05
 -1        10 1.83483E-13 5.50642E-17-3.78759E-05
 -1        11 0.00000E+00 0.00000E+00-2.59285E-04
 -1        12 0.00000E+00 0.00000E+00-2.59285E-04
 -1        13 1.83475E-13 5.50511E-17-3.78759E-05
 -1        14 1.83479E-13 5.89179E-17-3.78759E-05
 -1        15 0.00000E+00 0.00000E+00-2.59285E-04
 -1        16 0.00000E+00 0.00000E+00-2.59285E-04
 -3
    1PSTEP                         4           3           2          
  100CL  104 4.98818E-08          16                     1    4           1
 -4  DISP        4    1
 -5  D1          1    2    1    0
 -5  D2          1    2    2    0
 -5  D3          1    2    3    0
 -5  ALL         1    2    0    0    1ALL
 -1         1 0.00000E+00 0.00000E+00 0.00000E+00
 -1         2 0.00000E+00 0.00000E+00 0.00000E+00
 -1         3 6.60060E-13 4.71077E-18-4.14348E-05
 -1         4 6.60060E-13 4.49566E-18-4.14348E-05
 -1         5 0.00000E+00 0.00000E+00 0.00000E+00
 -1         6 0.00000E+00 0.00000E+00 0.00000E+00
 -1         7 6.60060E-13 4.71967E-18-4.14348E-05
 -1         8 6.60060E-13 4.51159E-18-4.14348E-05
 -1         9 3.88637E-13 5.32856E-17-5.14375E-05
 -1        10 3.88639E-13 5.50468E-17-5.14375E-05
 -1        11 0.00000E+00 0.00000E+00-3.31705E-04
 -1        12 0.00000E+00 0.00000E+00-3.31705E-04
 -1        13 3.88635E-13 5.50629E-17-5.14375E-05
 -1        14 3.88637E-13 5.67732E-17-5.14375E-05
 -1        15 0.00000E+00 0.00000E+00-3.31705E-04
 -1        16 0.00000E+00 0.00000E+00-3.31705E-04
 -3
    1PSTEP                         5           4           2          
  100CL  105 6.65091E-08          16                     1    5           1
 -4  DISP        4    1
 -5  D1          1    2    1    0
 -5  D2          1    2    2    0
 -5  D3          1    2    3    0
 -5  ALL         1    2    0    0    1ALL
 -1         1 0.00000E+00 0.00000E+00 0.00000E+00
 -1         2 0.00000E+00 0.00000E+00 0.00000E+00
 -1         3 8.61098E-13 4.82703E-18-5.34341E-05
 -1         4 8.61098E-13 4.49847E-18-5.34341E-05
 -1         5 0.00000E+00 0.00000E+00 0.00000E+00
 -1         6 0.00000E+00 0.00000E+00 0.00000E+00
 -1         7 8.61098E-13 4.81877E-18-5.34341E-05
 -1         8 8.61098E-13 4.48992E-18-5.34341E-05
 -1         9 5.89624E-13 5.55332E-17-6.34389E-05
 -1        10 5.89624E-13 5.49798E-17-6.34389E-05
 -1        11 0.00000E+00 0.00000E+00-3.61328E-04
 -1        12 0.00000E+00 0.00000E+00-3.61328E-04
 -1        13 5.89625E-13 5.51743E-17-6.34389E-05
 -1        14 5.89624E-13 5.44100E-17-6.34389E-05
 -1        15 0.00000E+00 0.00000E+00-3.61328E-04
 -1        16 0.00000E+00 0.00000E+00-3.61328E-04
 -3
    1PSTEP                         6           5           2          
  100CL  106 8.31364E-08          16                     1    6           1
 -4  DISP        4    1
 -5  D1          1    2    1    0
 -5  D2          1    2    2    0
 -5  D3          1    2    3    0
 -5  ALL         1    2    0    0    1ALL
 -1         1 0.00000E+00 0.00000E+00 0.00000E+00
 -1         2 0.00000E+00 0.00000E+00 0.00000E+00
 -1         3 9.54363E-13 4.88907E-18-5.83430E-05
 -1         4 9.54363E-13 4.50494E-18-5.83430E-05
 -1         5 0.00000E+00 0.00000E+00 0.00000E+00
 -1         6 0.00000E+00 0.00000E+00 0.00000E+00
 -1         7 9.54362E-13 4.88060E-18-5.83430E-05
 -1         8 9.54362E-13 4.49945E-18-5.83430E-05
 -1         9 6.82848E-13 5.70178E-17-6.83498E-05
 -1        10 6.82846E-13 5.49744E-17-6.83498E-05
 -1        11 0.00000E+00 0.00000E+00-3.34460E-04
 -1        12 0.00000E+00 0.00000E+00-3.34460E-04
 -1        13 6.82850E-13 5.52238E-17-6.83498E-05
 -1        14 6.82848E-13 5.30581E-17-6.83498E-05
 -1        15 0.00000E+00 0.00000E+00-3.34460E-04
 -1        16 0.00000E+00 0.00000E+00-3.34460E-04
 -3
    1PSTEP                         7           6           2          
  100CL  107 9.97636E-08          16                     1    7           1
 -4  DISP        4    1
 -5  D1          1    2    1    0
 -5  D2          1    2    2    0
 -5  D3          1    2    3    0
 -5  ALL         1    2    0    0    1ALL
 -1         1 0.00000E+00 0.00000E+00 0.00000E+00
 -1         2 0.00000E+00 0.00000E+00 0.00000E+00
 -1         3 8.81738E-13 4.84990E-18-5.39036E-05
 -1         4 8.81738E-13 4.52053E-18-5.39036E-05
 -1         5 0.00000E+00 0.00000E+00 0.00000E+00
 -1         6 0.00000E+00 0.00000E+00 0.00000E+00
 -1         7 8.81738E-13 4.84926E-18-5.39036E-05
 -1         8 8.81738E-13 4.52083E-18-5.39036E-05
 -1         9 6.10265E-13 5.57151E-17-6.39083E-05
 -1        10 6.10265E-13 5.49835E-17-6.39083E-05
 -1        11 0.00000E+00 0.00000E+00-2.63493E-04
 -1        12 0.00000E+00 0.00000E+00-2.63493E-04
 -1        13 6.10266E-13 5.52365E-17-6.39083E-05
 -1        14 6.10265E-13 5.44202E-17-6.39083E-05
 -1        15 0.00000E+00 0.00000E+00-2.63493E-04
 -1        16 0.00000E+00 0.00000E+00-2.63493E-04
 -3
    1PSTEP                         8           7           2          
  100CL  108 1.16391E-07          16                     1    8           1
 -4  DISP        4    1
 -5  D1          1    2    1    0
 -5  D2          1    2    2    0
 -5  D3          1    2    3    0
 -5  ALL         1    2    0    0    1ALL
 -1         1 0.00000E+00 0.00000E+00 0.00000E+00
 -1         2 0.00000E+00 0.00000E+00 0.00000E+00
 -1         3 6.78942E-13 4.76922E-18-4.21485E-05
 -1         4 6.78942E-13 4.52544E-18-4.21485E-05
 -1         5 0.00000E+00 0.00000E+00 0.00000E+00
 -1         6 0.00000E+00 0.00000E+00 0.00000E+00
 -1         7 6.78942E-13 4.76625E-18-4.21485E-05
 -1         8 6.78942E-13 4.51900E-18-4.21485E-05
 -1         9 4.07509E-13 5.37559E-17-5.21516E-05
 -1        10 4.07510E-13 5.49833E-17-5.21516E-05
 -1        11 0.00000E+00 0.00000E+00-1.81232E-04
 -1        12 0.00000E+00 0.00000E+00-1.81232E-04
 -1        13 4.07507E-13 5.52794E-17-5.21516E-05
 -1        14 4.07508E-13 5.62320E-17-5.21516E-05
 -1        15 0.00000E+00 0.00000E+00-1.81232E-04
 -1        16 0.00000E+00 0.00000E+00-1.81232E-04
 -3
    1PSTEP                         9           8           2          
  100CL  109 1.33018E-07          16                     1    9           1
 -4  DISP        4    1
 -5  D1          1    2    1    0
 -5  D2          1    2    2    0
 -5  D3          1    2    3    0
 -5  ALL         1    2    0    0    1ALL
 -1         1 0.00000E+00 0.00000E+00 0.00000E+00
 -1         2 0.00000E+00 0.00000E+00 0.00000E+00
 -1         3 4.56032E-13 4.72454E-18-2.84952E-05
 -1         4 4.56032E-13 4.59986E-18-2.84952E-05
 -1         5 0.00000E+00 0.00000E+00 0.00000E+00
 -1         6 0.00000E+00 0.00000E+00 0.00000E+00
 -1         7 4.56032E-13 4.72136E-18-2.84952E-05
 -1         8 4.56032E-13 4.60206E-18-2.84952E-05
 -1         9 1.84627E-13 5.21194E-17-3.84972E-05
 -1        10 1.84630E-13 5.50236E-17-3.84972E-05
 -1        11 0.00000E+00 0.00000E+00-1.25777E-04
 -1        12 0.00000E+00 0.00000E+00-1.25777E-04
 -1        13 1.84624E-13 5.52397E-17-3.84972E-05
 -1        14 1.84627E-13 5.78752E-17-3.84972E-05
 -1        15 0.00000E+00 0.00000E+00-1.25777E-04
 -1        16 0.00000E+00 0.00000E+00-1.25777E-04
 -3
    1PSTEP                        10           9           2          
  100CL  110 1.49645E-07          16                     1   10           1
 -4  DISP        4    1
 -5  D1          1    2    1    0
 -5  D2          1    2    2    0
 -5  D3          1    2    3    0
 -5  ALL         1    2    0    0    1ALL
 -1         1 0.00000E+00 0.00000E+00 0.00000E+00
 -1         2 0.00000E+00 0.00000E+00 0.00000E+00
 -1         3 3.23320E-13 4.69860E-18-1.92762E-05
 -1         4 3.23320E-13 4.62686E-18-1.92762E-05
 -1         5 0.00000E+00 0.00000E+00 0.00000E+00
 -1         6 0.00000E+00 0.00000E+00 0.00000E+00
 -1         7 3.23320E-13 4.68579E-18-1.92762E-05
 -1         8 3.23320E-13 4.61527E-18-1.92762E-05
 -1         9 5.19336E-14 5.09848E-17-2.92776E-05
 -1        10 5.19374E-14 5.49926E-17-2.92776E-05
 -1        11 0.00000E+00 0.00000E+00-1.22856E-04
 -1        12 0.00000E+00 0.00000E+00-1.22856E-04
 -1        13 5.19292E-14 5.52612E-17-2.92776E-05
 -1        14 5.19332E-14 5.90014E-17-2.92776E-05
 -1        15 0.00000E+00 0.00000E+00-1.22856E-04
 -1        16 0.00000E+00 0.00000E+00-1.22856E-04
 -3
    1PSTEP                        11          10           2          
  100CL  111 1.66273E-07          16                     1   11           1
 -4  DISP        4    1
 -5  D1          1    2    1    0
 -5  D2          1    2    2    0
 -5  D3          1    2    3    0
 -5  ALL         1    2    0    0    1ALL
 -1         1 0.00000E+00 0.00000E+00 0.00000E+00
 -1         2 0.00000E+00 0.00000E+00 0.00000E+00
 -1         3 3.29841E-13 4.63221E-18-1.87880E-05
 -1         4 3.29841E-13 4.55067E-18-1.87880E-05
 -1         5 0.00000E+00 0.00000E+00 0.00000E+00
 -1         6 0.00000E+00 0.00000E+00 0.00000E+00
 -1         7 3.29841E-13 4.62501E-18-1.87880E-05
 -1         8 3.29841E-13 4.54529E-18-1.87880E-05
 -1         9 5.84666E-14 5.06729E-17-2.87887E-05
 -1        10 5.84707E-14 5.49099E-17-2.87887E-05
 -1        11 0.00000E+00 0.00000E+00-1.73829E-04
 -1        12 0.00000E+00 0.00000E+00-1.73829E-04
 -1        13 5.84619E-14 5.51927E-17-2.87887E-05
 -1        14 5.84663E-14 5.92059E-17-2.87887E-05
 -1        15 0.00000E+00 0.00000E+00-1.73829E-04
 -1        16 0.00000E+00 0.00000E+00-1.73829E-04
 -3
    1PSTEP                        12          11           2          
  100CL  112 1.82900E-07          16                     1   12           1
 -4  DISP        4    1
 -5  D1          1    2    1    0
 -5  D2          1    2    2    0
 -5  D3          1    2    3    0
 -5  ALL         1    2    0    0    1ALL
 -1         1 0.00000E+00 0.00000E+00 0.00000E+00
 -1         2 0.00000E+00 0.00000E+00 0.00000E+00
 -1         3 4.58478E-13 4.64651E-18-2.72562E-05
 -1         4 4.58478E-13 4.51660E-18-2.72562E-05
 -1         5 0.00000E+00 0.00000E+00 0.00000E+00
 -1         6 0.00000E+00 0.00000E+00 0.00000E+00
 -1         7 4.58478E-13 4.62946E-18-2.72562E-05
 -1         8 4.58478E-13 4.50029E-18-2.72562E-05
 -1         9 1.87078E-13 5.20039E-17-3.72578E-05
 -1        10 1.87081E-13 5.48900E-17-3.72578E-05
 -1        11 0.00000E+00 0.00000E+00-2.55061E-04
 -1        12 0.00000E+00 0.00000E+00-2.55061E-04
 -1        13 1.87075E-13 5.51999E-17-3.72578E-05
 -1        14 1.87078E-13 5.78642E-17-3.72578E-05
 -1        15 0.00000E+00 0.00000E+00-2.55061E-04
 -1        16 0.00000E+00 0.00000E+00-2.55061E-04
 -3
    1PSTEP                        13          12           2          
  100CL  113 1.99527E-07          16                     1   13           1
 -4  DISP        4    1
 -5  D1          1    2    1    0
 -5  D2          1    2    2    0
 -5  D3          1    2    3    0
 -5  ALL         1    2    0    0    1ALL
 -1         1 0.00000E+00 0.00000E+00 0.00000E+00
 -1         2 0.00000E+00 0.00000E+00 0.00000E+00
 -1         3 6.54325E-13 4.74233E-18-4.07343E-05
 -1         4 6.54325E-13 4.50704E-18-4.07343E-05
 -1         5 0.00000E+00 0.00000E+00 0.00000E+00
 -1         6 0.00000E+00 0.00000E+00 0.00000E+00
 -1         7 6.54325E-13 4.72814E-18-4.07343E-05
 -1         8 6.54325E-13 4.49436E-18-4.07343E-05
 -1         9 3.82885E-13 5.41367E-17-5.07375E-05
 -1        10 3.82886E-13 5.49415E-17-5.07375E-05
 -1        11 0.00000E+00 0.00000E+00-3.28936E-04
 -1        12 0.00000E+00 0.00000E+00-3.28936E-04
 -1        13 3.82884E-13 5.53160E-17-5.07375E-05
 -1        14 3.82885E-13 5.58635E-17-5.07375E-05
 -1        15 0.00000E+00 0.00000E+00-3.28936E-04
 -1        16 0.00000E+00 0.00000E+00-3.28936E-04
 -3
    1PSTEP                        14          13           2          
  100CL  114 2.16155E-07          16                     1   14           1
 -4  DISP        4    1
 -5  D1          1    2    1    0
 -5  D2          1    2    2    0
 -5  D3          1    2    3    0
 -5  ALL         1    2    0    0    1ALL
 -1         1 0.00000E+00 0.00000E+00 0.00000E+00
 -1         2 0.00000E+00 0.00000E+00 0.00000E+00
 -1         3 8.43484E-13 4.91724E-18-5.29754E-05
 -1         4 8.43483E-13 4.53825E-18-5.29754E-05
 -1         5 0.00000E+00 0.00000E+00 0.00000E+00
 -1         6 0.00000E+00 0.00000E+00 0.00000E+00
 -1         7 8.43483E-13 4.90263E-18-5.29754E-05
 -1         8 8.43483E-13 4.52350E-18-5.29754E-05
 -1         9 5.71998E-13 5.63998E-17-6.29805E-05
 -1        10 5.71997E-13 5.50457E-17-6.29805E-05
 -1        11 0.00000E+00 0.00000E+00-3.61294E-04
 -1        12 0.00000E+00 0.00000E+00-3.61294E-04
 -1        13 5.71999E-13 5.53874E-17-6.29805E-05
 -1        14 5.71998E-13 5.38391E-17-6.29805E-05
 -1        15 0.00000E+00 0.00000E+00-3.61294E-04
 -1        16 0.00000E+00 0.00000E+00-3.61294E-04
 -3
    1PSTEP                        15          14           2          
  100CL  115 2.32782E-07          16                     1   15           1
 -4  DISP        4    1
 -5  D1          1    2    1    0
 -5  D2          1    2    2    0
 -5  D3          1    2    3    0
 -5  ALL         1    2    0    0    1ALL
 -1         1 0.00000E+00 0.00000E+00 0.00000E+00
 -1         2 0.00000E+00 0.00000E+00 0.00000E+00
 -1         3 9.43135E-13 4.96065E-18-5.83370E-05
 -1         4 9.43135E-13 4.50996E-18-5.83370E-05
 -1         5 0.00000E+00 0.00000E+00 0.00000E+00
 -1         6 0.00000E+00 0.00000E+00 0.00000E+00
 -1         7 9.43134E-13 4.95260E-18-5.83370E-05
 -1         8 9.43134E-13 4.49832E-18-5.83370E-05
 -1         9 6.71604E-13 5.80104E-17-6.83443E-05
 -1        10 6.71601E-13 5.50437E-17-6.83443E-05
 -1        11 0.00000E+00 0.00000E+00-3.37179E-04
 -1        12 0.00000E+00 0.00000E+00-3.37179E-04
 -1        13 6.71607E-13 5.53968E-17-6.83443E-05
 -1        14 6.71604E-13 5.22425E-17-6.83443E-05
 -1        15 0.00000E+00 0.00000E+00-3.37179E-04
 -1        16 0.00000E+00 0.00000E+00-3.37179E-04
 -3
    1PSTEP                        16          15           2          
  100CL  116 2.49409E-07          16                     1   16           1
 -4  DISP        4    1
 -5  D1          1    2    1    0
 -5  D2          1    2    2    0
 -5  D3          1    2    3    0
 -5  ALL         1    2    0    0    1ALL
 -1         1 0.00000E+00 0.00000E+00 0.00000E+00
 -1         2 0.00000E+00 0.00000E+00 0.00000E+00
 -1         3 8.92975E-13 4.83381E-18-5.43533E-05
 -1         4 8.92975E-13 4.47355E-18-5.43533E-05
 -1         5 0.00000E+00 0.00000E+00 0.00000E+00
 -1         6 0.00000E+00 0.00000E+00 0.00000E+00
 -1         7 8.92975E-13 4.81962E-18-5.43533E-05
 -1         8 8.92975E-13 4.45319E-18-5.43533E-05
 -1         9 6.21483E-13 5.67143E-17-6.43587E-05
 -1        10 6.21481E-13 5.49357E-17-6.43587E-05
 -1        11 0.00000E+00 0.00000E+00-2.67709E-04
 -1        12 0.00000E+00 0.00000E+00-2.67709E-04
 -1        13 6.21484E-13 5.53505E-17-6.43587E-05
 -1        14 6.21482E-13 5.33444E-17-6.43587E-05
 -1        15 0.00000E+00 0.00000E+00-2.67709E-04
 -1        16 0.00000E+00 0.00000E+00-2.67709E-04
 -3
    1PSTEP                        17          16           2          
  100CL  117 2.66036E-07          16                     1   17           1
 -4  DISP        4    1
 -5  D1          1    2    1    0
 -5  D2          1    2    2    0
 -5  D3          1    2    3    0
 -5  ALL         1    2    0    0    1ALL
 -1         1 0.00000E+00 0.00000E+00 0.00000E+00
 -1         2 0.00000E+00 0.00000E+00 0.00000E+00
 -1         3 7.03466E-13 4.73364E-18-4.28473E-05
 -1         4 7.03466E-13 4.43039E-18-4.28473E-05
 -1         5 0.00000E+00 0.00000E+00 0.00000E+00
 -1         6 0.00000E+00 0.00000E+00 0.00000E+00
 -1         7 7.03465E-13 4.71628E-18-4.28473E-05
 -1         8 7.03465E-13 4.41021E-18-4.28473E-05
 -1         9 4.32011E-13 5.47851E-17-5.28512E-05
 -1        10 4.32011E-13 5.48423E-17-5.28512E-05
 -1        11 0.00000E+00 0.00000E+00-1.84995E-04
 -1        12 0.00000E+00 0.00000E+00-1.84995E-04
 -1        13 4.32011E-13 5.53048E-17-5.28512E-05
 -1        14 4.32011E-13 5.50724E-17-5.28512E-05
 -1        15 0.00000E+00 0.00000E+00-1.84995E-04
 -1        16 0.00000E+00 0.00000E+00-1.84995E-04
 -3
    1PSTEP                        18          17           2          
  100CL  118 2.82664E-07          16                     1   18           1
 -4  DISP        4    1
 -5  D1          1    2    1    0
 -5  D2          1    2    2    0
 -5  D3          1    2    3    0
 -5  ALL         1    2    0    0    1ALL
 -1         1 0.00000E+00 0.00000E+00 0.00000E+00
 -1         2 0.00000E+00 0.00000E+00 0.00000E+00
 -1         3 4.69327E-13 4.74720E-18-2.91201E-05
 -1         4 4.69327E-13 4.53647E-18-2.91201E-05
 -1         5 0.00000E+00 0.00000E+00 0.00000E+00
 -1         6 0.00000E+00 0.00000E+00 0.00000E+00
 -1         7 4.69327E-13 4.73195E-18-2.91201E-05
 -1         8 4.69327E-13 4.52338E-18-2.91201E-05
 -1         9 1.97901E-13 5.32177E-17-3.91230E-05
 -1        10 1.97903E-13 5.49313E-17-3.91230E-05
 -1        11 0.00000E+00 0.00000E+00-1.27343E-04
 -1        12 0.00000E+00 0.00000E+00-1.27343E-04
 -1        13 1.97899E-13 5.53845E-17-3.91230E-05
 -1        14 1.97901E-13 5.67868E-17-3.91230E-05
 -1        15 0.00000E+00 0.00000E+00-1.27343E-04
 -1        16 0.00000E+00 0.00000E+00-1.27343E-04
 -3
    1PSTEP                        19          18           2          
  100CL  119 2.99291E-07          16                     1   19           1
 -4  DISP        4    1
 -5  D1          1    2    1    0
 -5  D2          1    2    2    0
 -5  D3          1    2    3    0
 -5  ALL         1    2    0    0    1ALL
 -1         1 0.00000E+00 0.00000E+00 0.00000E+00
 -1         2 0.00000E+00 0.00000E+00 0.00000E+00
 -1         3 3.15874E-13 4.78288E-18-1.95365E-05
 -1         4 3.15874E-13 4.67859E-18-1.95365E-05
 -1         5 0.00000E+00 0.00000E+00 0.00000E+00
 -1         6 0.00000E+00 0.00000E+00 0.00000E+00
 -1         7 3.15874E-13 4.77122E-18-1.95365E-05
 -1         8 3.15874E-13 4.66652E-18-1.95365E-05
 -1         9 4.44682E-14 5.21594E-17-2.95386E-05
 -1        10 4.44712E-14 5.50246E-17-2.95386E-05
 -1        11 0.00000E+00 0.00000E+00-1.21498E-04
 -1        12 0.00000E+00 0.00000E+00-1.21498E-04
 -1        13 4.44649E-14 5.54760E-17-2.95386E-05
 -1        14 4.44680E-14 5.80201E-17-2.95386E-05
 -1        15 0.00000E+00 0.00000E+00-1.21498E-04
 -1        16 0.00000E+00 0.00000E+00-1.21498E-04
 -3
    1PSTEP                        20          19           2          
  100CL  120 3.15918E-07          16                     1   20           1
 -4  DISP        4    1
 -5  D1          1    2    1    0
 -5  D2          1    2    2    0
 -5  D3          1    2    3    0
 -5  ALL         1    2    0    0    1ALL
 -1         1 0.00000E+00 0.00000E+00 0.00000E+00
 -1         2 0.00000E+00 0.00000E+00 0.00000E+00
 -1         3 3.16481E-13 4.75980E-18-1.85621E-05
 -1         4 3.16481E-13 4.63349E-18-1.85621E-05
 -1         5 0.00000E+00 0.00000E+00 0.00000E+00
 -1         6 0.00000E+00 0.00000E+00 0.00000E+00
 -1         7 3.16481E-13 4.74868E-18-1.85621E-05
 -1         8 3.16481E-13 4.62222E-18-1.85621E-05
 -1         9 4.50878E-14 5.17502E-17-2.85636E-05
 -1        10 4.50912E-14 5.50061E-17-2.85636E-05
 -1        11 0.00000E+00 0.00000E+00-1.70177E-04
 -1        12 0.00000E+00 0.00000E+00-1.70177E-04
 -1        13 4.50841E-14 5.54767E-17-2.85636E-05
 -1        14 4.50876E-14 5.83830E-17-2.85636E-05
 -1        15 0.00000E+00 0.00000E+00-1.70177E-04
 -1        16 0.00000E+00 0.00000E+00-1.70177E-04
 -3
    1PSTEP                        21          20           2          
  100CL  121 3.32545E-07          16                     1   21           1
 -4  DISP        4    1
 -5  D1          1    2    1    0
 -5  D2          1    2    2    0
 -5  D3          1    2    3    0
 -5  ALL         1    2    0    0    1ALL
 -1         1 0.00000E+00 0.00000E+00 0.00000E+00
 -1         2 0.00000E+00 0.00000E+00 0.00000E+00
 -1         3 4.55053E-13 4.72613E-18-2.66497E-05
 -1         4 4.55053E-13 4.52033E-18-2.66497E-05
 -1         5 0.00000E+00 0.00000E+00 0.00000E+00
 -1         6 0.00000E+00 0.00000E+00 0.00000E+00
 -1         7 4.55053E-13 4.71247E-18-2.66497E-05
 -1         8 4.55053E-13 4.50736E-18-2.66497E-05
 -1         9 1.83636E-13 5.29676E-17-3.66521E-05
 -1        10 1.83638E-13 5.49587E-17-3.66521E-05
 -1        11 0.00000E+00 0.00000E+00-2.50809E-04
 -1        12 0.00000E+00 0.00000E+00-2.50809E-04
 -1        13 1.83634E-13 5.53884E-17-3.66521E-05
 -1        14 1.83636E-13 5.71019E-17-3.66521E-05
 -1        15 0.00000E+00 0.00000E+00-2.50809E-04
 -1        16 0.00000E+00 0.00000E+00-2.50809E-04
 -3
    1PSTEP                        22          21           2          
  100CL  122 3.49173E-07          16                     1   22           1
 -4  DISP        4    1
 -5  D1          1    2    1    0
 -5  D2          1    2    2    0
 -5  D3          1    2    3    0
 -5  ALL         1    2    0    0    1ALL
 -1         1 0.00000E+00 0.00000E+00 0.00000E+00
 -1         2 0.00000E+00 0.00000E+00 0.00000E+00
 -1         3 6.56415E-13 4.72496E-18-4.00292E-05
 -1         4 6.56415E-13 4.45714E-18-4.00292E-05
 -1         5 0.00000E+00 0.00000E+00 0.00000E+00
 -1         6 0.00000E+00 0.00000E+00 0.00000E+00
 -1         7 6.56414E-13 4.71459E-18-4.00292E-05
 -1         8 6.56414E-13 4.44841E-18-4.00292E-05
 -1         9 3.84958E-13 5.49924E-17-5.00331E-05
 -1        10 3.84958E-13 5.49185E-17-5.00331E-05
 -1        11 0.00000E+00 0.00000E+00-3.26051E-04
 -1        12 0.00000E+00 0.00000E+00-3.26051E-04
 -1        13 3.84958E-13 5.53659E-17-5.00331E-05
 -1        14 3.84958E-13 5.49978E-17-5.00331E-05
 -1        15 0.00000E+00 0.00000E+00-3.26051E-04
 -1        16 0.00000E+00 0.00000E+00-3.26051E-04
 -3
    1PSTEP                        23          22           2          
  100CL  123 3.65800E-07          16                     1   23           1
 -4  DISP        4    1
 -5  D1          1    2    1    0
 -5  D2          1    2    2    0
 -5  D3          1    2    3    0
 -5  ALL         1    2    0    0    1ALL
 -1         1 0.00000E+00 0.00000E+00 0.00000E+00
 -1         2 0.00000E+00 0.00000E+00 0.00000E+00
 -1         3 8.37184E-13 4.86726E-18-5.24975E-05
 -1         4 8.37184E-13 4.45750E-18-5.24975E-05
 -1         5 0.00000E+00 0.00000E+00 0.00000E+00
 -1         6 0.00000E+00 0.00000E+00 0.00000E+00
 -1         7 8.37184E-13 4.85265E-18-5.24975E-05
 -1         8 8.37184E-13 4.43067E-18-5.24975E-05
 -1         9 5.65681E-13 5.72554E-17-6.25033E-05
 -1        10 5.65679E-13 5.49566E-17-6.25033E-05
 -1        11 0.00000E+00 0.00000E+00-3.61110E-04
 -1        12 0.00000E+00 0.00000E+00-3.61110E-04
 -1        13 5.65683E-13 5.54284E-17-6.25033E-05
 -1        14 5.65681E-13 5.28091E-17-6.25033E-05
 -1        15 0.00000E+00 0.00000E+00-3.61110E-04
 -1        16 0.00000E+00 0.00000E+00-3.61110E-04
 -3
    1PSTEP                        24          23           2          
  100CL  124 3.82427E-07          16                     1   24           1
 -4  DISP        4    1
 -5  D1          1    2    1    0
 -5  D2          1    2    2    0
 -5  D3          1    2    3    0
 -5  ALL         1    2    0    0    1ALL
 -1         1 0.00000E+00 0.00000E+00 0.00000E+00
 -1         2 0.00000E+00 0.00000E+00 0.00000E+00
 -1         3 9.30133E-13 4.99495E-18-5.83061E-05
 -1         4 9.30133E-13 4.46774E-18-5.83061E-05
 -1         5 0.00000E+00 0.00000E+00 0.00000E+00
 -1         6 0.00000E+00 0.00000E+00 0.00000E+00
 -1         7 9.30133E-13 4.98140E-18-5.83061E-05
 -1         8 9.30133E-13 4.45430E-18-5.83061E-05
 -1         9 6.58586E-13 5.90121E-17-6.83139E-05
 -1        10 6.58583E-13 5.50631E-17-6.83139E-05
 -1        11 0.00000E+00 0.00000E+00-3.39782E-04
 -1        12 0.00000E+00 0.00000E+00-3.39782E-04
 -1        13 6.58590E-13 5.55821E-17-6.83139E-05
 -1        14 6.58586E-13 5.13683E-17-6.83139E-05
 -1        15 0.00000E+00 0.00000E+00-3.39782E-04
 -1        16 0.00000E+00 0.00000E+00-3.39782E-04
 -3
    1PSTEP                        25          24           2          
  100CL  125 3.99055E-07          16                     1   25           1
 -4  DISP        4    1
 -5  D1          1    2    1    0
 -5  D2          1    2    2    0
 -5  D3          1    2    3    0
 -5  ALL         1    2    0    0    1ALL
 -1         1 0.00000E+00 0.00000E+00 0.00000E+00
 -1         2 0.00000E+00 0.00000E+00 0.00000E+00
 -1         3 8.91514E-13 4.91618E-18-5.47839E-05
 -1         4 8.91514E-13 4.50487E-18-5.47839E-05
 -1         5 0.00000E+00 0.00000E+00 0.00000E+00
 -1         6 0.00000E+00 0.00000E+00 0.00000E+00
 -1         7 8.91514E-13 4.88399E-18-5.47839E-05
 -1         8 8.91514E-13 4.48026E-18-5.47839E-05
 -1         9 6.20005E-13 5.78185E-17-6.47898E-05
 -1        10 6.20002E-13 5.50480E-17-6.47898E-05
 -1        11 0.00000E+00 0.00000E+00-2.71897E-04
 -1        12 0.00000E+00 0.00000E+00-2.71897E-04
 -1        13 6.20007E-13 5.54867E-17-6.47898E-05
 -1        14 6.20005E-13 5.25770E-17-6.47898E-05
 -1        15 0.00000E+00 0.00000E+00-2.71897E-04
 -1        16 0.00000E+00 0.00000E+00-2.71897E-04
 -3