
                        S T E P       1


                                INCREMENT     1


 displacements (vx,vy,vz) for set NALL and time  0.1000000E+01

         1  6.000000E+04  0.000000E+00  0.000000E+00
         2  6.000000E+04  3.666972E+00  0.000000E+00
         4  6.000000E+04  0.000000E+00  0.000000E+00
         6  6.000000E+04  7.999900E-01  1.542457E+00
         7  6.000000E+04  0.000000E+00  0.000000E+00
         8  6.000000E+04  8.317220E-01  1.542457E+00
         9  6.000000E+04  0.000000E+00  0.000000E+00
        10  6.000000E+04  1.600000E+00  0.000000E+00
        11  6.000000E+04  0.000000E+00  0.000000E+00
        21  0.000000E+00  0.000000E+00  0.000000E+00
        22  0.000000E+00  0.000000E+00  0.000000E+00
        24  0.000000E+00  0.000000E+00  0.000000E+00
        23  0.000000E+00  0.000000E+00  0.000000E+00
        25  0.000000E+00  0.000000E+00  0.000000E+00
        26  0.000000E+00  0.000000E+00  0.000000E+00
        28  0.000000E+00  0.000000E+00  0.000000E+00
        27  0.000000E+00  0.000000E+00  0.000000E+00

 mass flows for set NALL and time  0.1000000E+01

         1  6.000000E+04
         2  6.000000E+04
         4  6.000000E+04
         6  6.000000E+04
         7  6.000000E+04
         8  6.000000E+04
         9  6.000000E+04
        10  6.000000E+04
        11  6.000000E+04
        21  0.000000E+00
        22  0.000000E+00
        24  0.000000E+00
        23  0.000000E+00
        25  0.000000E+00
        26  0.000000E+00
        28  0.000000E+00
        27  0.000000E+00

 network pressures (total pressure for gases, static pressure for liquids and fluid depth for channels) for set NALL and time  0.1000000E+01

         1  0.000000E+00
         2  3.666972E+00
         4  0.000000E+00
         6  7.999900E-01
         7  0.000000E+00
         8  8.317220E-01
         9  0.000000E+00
        10  1.600000E+00
        11  0.000000E+00
        21  0.000000E+00
        22  0.000000E+00
        24  0.000000E+00
        23  0.000000E+00
        25  0.000000E+00
        26  0.000000E+00
        28  0.000000E+00
        27  0.000000E+00

 temperatures for set NALL and time  0.1000000E+01

         1 -1.000000E+00
         2  2.930000E+02
         4 -1.000000E+00
         6  6.249965E+02
         7 -1.000000E+00
         8  6.645191E+02
         9 -1.000000E+00
        10  6.645191E+02
        11  0.000000E+00
        21  7.930000E+02
        22  7.930000E+02
        24  7.930000E+02
        23  7.930000E+02
        25  7.930000E+02
        26  7.930000E+02
        28  7.930000E+02
        27  7.930000E+02
