    1C
    1UUSER                                                              
    1UDATE              16.may.2023                                     
    1UTIME              12:45:58                                        
    1UHOST                                                              
    1UPGM               CalculiX                                        
    1UVERSION           Version DEVELOPMENT                             
    1UCOMPILETIME       Tue May 16 12:24:06 CEST 2023                    
    1UDIR                                                               
    1UDBN                                                               
    1UMAT    1EL                                                        
    1UMAT    2SI1                                                       
    2C                            16                                     1
 -1         1 1.00000E+00 1.00000E+00-1.49012E-08
 -1         2 1.00000E+00 0.00000E+00-1.49012E-08
 -1         3 1.00000E+00 0.00000E+00 1.00000E+00
 -1         4 1.00000E+00 1.00000E+00 1.00000E+00
 -1         5-7.45058E-09 1.00000E+00-1.49012E-08
 -1         6-7.45058E-09 0.00000E+00-1.49012E-08
 -1         7-7.45058E-09 0.00000E+00 1.00000E+00
 -1         8-7.45058E-09 1.00000E+00 1.00000E+00
 -1         9 5.00000E-01 6.41421E-01 1.00000E+00
 -1        10 6.41421E-01 5.00000E-01 1.00000E+00
 -1        11 6.41421E-01 5.00000E-01 1.20000E+00
 -1        12 5.00000E-01 6.41421E-01 1.20000E+00
 -1        13 3.58579E-01 5.00000E-01 1.00000E+00
 -1        14 5.00000E-01 3.58579E-01 1.00000E+00
 -1        15 5.00000E-01 3.58579E-01 1.20000E+00
 -1        16 3.58579E-01 5.00000E-01 1.20000E+00
 -3
    3C                             2                                     1
 -1         1    1    0    1
 -2         1         2         3         4         5         6         7         8
 -1         2    1    0    1
 -2         9        10        11        12        13        14        15        16
 -3
    1PSTEP                         1           1           1          
  100CL  101 1.00000E-20          16                     0    1           1
 -4  DISP        4    1
 -5  D1          1    2    1    0
 -5  D2          1    2    2    0
 -5  D3          1    2    3    0
 -5  ALL         1    2    0    0    1ALL
 -1         1 0.00000E+00 0.00000E+00 0.00000E+00
 -1         2 0.00000E+00 0.00000E+00 0.00000E+00
 -1         3 2.88100E-13 4.57429E-18-1.90482E-05
 -1         4 2.88100E-13 4.56800E-18-1.90482E-05
 -1         5 0.00000E+00 0.00000E+00 0.00000E+00
 -1         6 0.00000E+00 0.00000E+00 0.00000E+00
 -1         7 2.88100E-13 4.65780E-18-1.90482E-05
 -1         8 2.88100E-13 4.65151E-18-1.90482E-05
 -1         9 1.67428E-14 4.98028E-17-2.90482E-05
 -1        10 1.67480E-14 5.50665E-17-2.90482E-05
 -1        11 0.00000E+00 0.00000E+00-1.24355E-04
 -1        12 0.00000E+00 0.00000E+00-1.24355E-04
 -1        13 1.67375E-14 5.50431E-17-2.90482E-05
 -1        14 1.67428E-14 6.03102E-17-2.90482E-05
 -1        15 0.00000E+00 0.00000E+00-1.24355E-04
 -1        16 0.00000E+00 0.00000E+00-1.24355E-04
 -3
    1PSTEP                         2           1           2          
  100CL  102 2.04643E-08          16                     1    2           1
 -4  DISP        4    1
 -5  D1          1    2    1    0
 -5  D2          1    2    2    0
 -5  D3          1    2    3    0
 -5  ALL         1    2    0    0    1ALL
 -1         1 0.00000E+00 0.00000E+00 0.00000E+00
 -1         2 0.00000E+00 0.00000E+00 0.00000E+00
 -1         3 2.88100E-13 4.57429E-18-1.90482E-05
 -1         4 2.88100E-13 4.56800E-18-1.90482E-05
 -1         5 0.00000E+00 0.00000E+00 0.00000E+00
 -1         6 0.00000E+00 0.00000E+00 0.00000E+00
 -1         7 2.88100E-13 4.65780E-18-1.90482E-05
 -1         8 2.88100E-13 4.65151E-18-1.90482E-05
 -1         9 1.67428E-14 4.98028E-17-2.90482E-05
 -1        10 1.67480E-14 5.50665E-17-2.90482E-05
 -1        11 0.00000E+00 0.00000E+00-2.04941E-04
 -1        12 0.00000E+00 0.00000E+00-2.04941E-04
 -1        13 1.67375E-14 5.50431E-17-2.90482E-05
 -1        14 1.67428E-14 6.03102E-17-2.90482E-05
 -1        15 0.00000E+00 0.00000E+00-2.04941E-04
 -1        16 0.00000E+00 0.00000E+00-2.04941E-04
 -3
    1PSTEP                         3           2           2          
  100CL  103 4.09287E-08          16                     1    3           1
 -4  DISP        4    1
 -5  D1          1    2    1    0
 -5  D2          1    2    2    0
 -5  D3          1    2    3    0
 -5  ALL         1    2    0    0    1ALL
 -1         1 0.00000E+00 0.00000E+00 0.00000E+00
 -1         2 0.00000E+00 0.00000E+00 0.00000E+00
 -1         3 5.18244E-13 4.64407E-18-3.24199E-05
 -1         4 5.18244E-13 4.56120E-18-3.24199E-05
 -1         5 0.00000E+00 0.00000E+00 0.00000E+00
 -1         6 0.00000E+00 0.00000E+00 0.00000E+00
 -1         7 5.18244E-13 4.64682E-18-3.24199E-05
 -1         8 5.18244E-13 4.55936E-18-3.24199E-05
 -1         9 2.46855E-13 5.16372E-17-4.24211E-05
 -1        10 2.46859E-13 5.50836E-17-4.24211E-05
 -1        11 0.00000E+00 0.00000E+00-3.09531E-04
 -1        12 0.00000E+00 0.00000E+00-3.09531E-04
 -1        13 2.46852E-13 5.50031E-17-4.24211E-05
 -1        14 2.46855E-13 5.84300E-17-4.24211E-05
 -1        15 0.00000E+00 0.00000E+00-3.09531E-04
 -1        16 0.00000E+00 0.00000E+00-3.09531E-04
 -3
    1PSTEP                         4           3           2          
  100CL  104 6.13930E-08          16                     1    4           1
 -4  DISP        4    1
 -5  D1          1    2    1    0
 -5  D2          1    2    2    0
 -5  D3          1    2    3    0
 -5  ALL         1    2    0    0    1ALL
 -1         1 0.00000E+00 0.00000E+00 0.00000E+00
 -1         2 0.00000E+00 0.00000E+00 0.00000E+00
 -1         3 7.96878E-13 4.77790E-18-4.97584E-05
 -1         4 7.96878E-13 4.48034E-18-4.97584E-05
 -1         5 0.00000E+00 0.00000E+00 0.00000E+00
 -1         6 0.00000E+00 0.00000E+00 0.00000E+00
 -1         7 7.96878E-13 4.78235E-18-4.97584E-05
 -1         8 7.96878E-13 4.48054E-18-4.97584E-05
 -1         9 5.25444E-13 5.41155E-17-5.97614E-05
 -1        10 5.25445E-13 5.51774E-17-5.97614E-05
 -1        11 0.00000E+00 0.00000E+00-3.64827E-04
 -1        12 0.00000E+00 0.00000E+00-3.64827E-04
 -1        13 5.25442E-13 5.50708E-17-5.97614E-05
 -1        14 5.25444E-13 5.60439E-17-5.97614E-05
 -1        15 0.00000E+00 0.00000E+00-3.64827E-04
 -1        16 0.00000E+00 0.00000E+00-3.64827E-04
 -3
    1PSTEP                         5           4           2          
  100CL  105 8.18573E-08          16                     1    5           1
 -4  DISP        4    1
 -5  D1          1    2    1    0
 -5  D2          1    2    2    0
 -5  D3          1    2    3    0
 -5  ALL         1    2    0    0    1ALL
 -1         1 0.00000E+00 0.00000E+00 0.00000E+00
 -1         2 0.00000E+00 0.00000E+00 0.00000E+00
 -1         3 9.65858E-13 4.84588E-18-5.89186E-05
 -1         4 9.65858E-13 4.59368E-18-5.89186E-05
 -1         5 0.00000E+00 0.00000E+00 0.00000E+00
 -1         6 0.00000E+00 0.00000E+00 0.00000E+00
 -1         7 9.65857E-13 4.84333E-18-5.89186E-05
 -1         8 9.65857E-13 4.59538E-18-5.89186E-05
 -1         9 6.94375E-13 5.62928E-17-6.89237E-05
 -1        10 6.94374E-13 5.52981E-17-6.89237E-05
 -1        11 0.00000E+00 0.00000E+00-3.32116E-04
 -1        12 0.00000E+00 0.00000E+00-3.32116E-04
 -1        13 6.94376E-13 5.51919E-17-6.89237E-05
 -1        14 6.94375E-13 5.42186E-17-6.89237E-05
 -1        15 0.00000E+00 0.00000E+00-3.32116E-04
 -1        16 0.00000E+00 0.00000E+00-3.32116E-04
 -3
    1PSTEP                         6           5           2          
  100CL  106 1.02322E-07          16                     1    6           1
 -4  DISP        4    1
 -5  D1          1    2    1    0
 -5  D2          1    2    2    0
 -5  D3          1    2    3    0
 -5  ALL         1    2    0    0    1ALL
 -1         1 0.00000E+00 0.00000E+00 0.00000E+00
 -1         2 0.00000E+00 0.00000E+00 0.00000E+00
 -1         3 8.71916E-13 4.91618E-18-5.35165E-05
 -1         4 8.71916E-13 4.50232E-18-5.35165E-05
 -1         5 0.00000E+00 0.00000E+00 0.00000E+00
 -1         6 0.00000E+00 0.00000E+00 0.00000E+00
 -1         7 8.71916E-13 4.92719E-18-5.35165E-05
 -1         8 8.71916E-13 4.50782E-18-5.35165E-05
 -1         9 6.00474E-13 5.48111E-17-6.35197E-05
 -1        10 6.00474E-13 5.53034E-17-6.35197E-05
 -1        11 0.00000E+00 0.00000E+00-2.34241E-04
 -1        12 0.00000E+00 0.00000E+00-2.34241E-04
 -1        13 6.00473E-13 5.51544E-17-6.35197E-05
 -1        14 6.00474E-13 5.56213E-17-6.35197E-05
 -1        15 0.00000E+00 0.00000E+00-2.34241E-04
 -1        16 0.00000E+00 0.00000E+00-2.34241E-04
 -3
    1PSTEP                         7           6           2          
  100CL  107 1.22786E-07          16                     1    7           1
 -4  DISP        4    1
 -5  D1          1    2    1    0
 -5  D2          1    2    2    0
 -5  D3          1    2    3    0
 -5  ALL         1    2    0    0    1ALL
 -1         1 0.00000E+00 0.00000E+00 0.00000E+00
 -1         2 0.00000E+00 0.00000E+00 0.00000E+00
 -1         3 5.93026E-13 4.62882E-18-3.72983E-05
 -1         4 5.93026E-13 4.68733E-18-3.72983E-05
 -1         5 0.00000E+00 0.00000E+00 0.00000E+00
 -1         6 0.00000E+00 0.00000E+00 0.00000E+00
 -1         7 5.93026E-13 4.63073E-18-3.72983E-05
 -1         8 5.93026E-13 4.69243E-18-3.72983E-05
 -1         9 3.21621E-13 5.27315E-17-4.73000E-05
 -1        10 3.21624E-13 5.51808E-17-4.73000E-05
 -1        11 0.00000E+00 0.00000E+00-1.39761E-04
 -1        12 0.00000E+00 0.00000E+00-1.39761E-04
 -1        13 3.21619E-13 5.51473E-17-4.73000E-05
 -1        14 3.21621E-13 5.75203E-17-4.73000E-05
 -1        15 0.00000E+00 0.00000E+00-1.39761E-04
 -1        16 0.00000E+00 0.00000E+00-1.39761E-04
 -3
    1PSTEP                         8           7           2          
  100CL  108 1.43250E-07          16                     1    8           1
 -4  DISP        4    1
 -5  D1          1    2    1    0
 -5  D2          1    2    2    0
 -5  D3          1    2    3    0
 -5  ALL         1    2    0    0    1ALL
 -1         1 0.00000E+00 0.00000E+00 0.00000E+00
 -1         2 0.00000E+00 0.00000E+00 0.00000E+00
 -1         3 3.57600E-13 4.82015E-18-2.16036E-05
 -1         4 3.57600E-13 4.40053E-18-2.16036E-05
 -1         5 0.00000E+00 0.00000E+00 0.00000E+00
 -1         6 0.00000E+00 0.00000E+00 0.00000E+00
 -1         7 3.57599E-13 4.82470E-18-2.16036E-05
 -1         8 3.57599E-13 4.40296E-18-2.16036E-05
 -1         9 8.62180E-14 5.10565E-17-3.16046E-05
 -1        10 8.62222E-14 5.51179E-17-3.16046E-05
 -1        11 0.00000E+00 0.00000E+00-1.15021E-04
 -1        12 0.00000E+00 0.00000E+00-1.15021E-04
 -1        13 8.62139E-14 5.50969E-17-3.16046E-05
 -1        14 8.62180E-14 5.91246E-17-3.16046E-05
 -1        15 0.00000E+00 0.00000E+00-1.15021E-04
 -1        16 0.00000E+00 0.00000E+00-1.15021E-04
 -3
    1PSTEP                         9           8           2          
  100CL  109 1.63715E-07          16                     1    9           1
 -4  DISP        4    1
 -5  D1          1    2    1    0
 -5  D2          1    2    2    0
 -5  D3          1    2    3    0
 -5  ALL         1    2    0    0    1ALL
 -1         1 0.00000E+00 0.00000E+00 0.00000E+00
 -1         2 0.00000E+00 0.00000E+00 0.00000E+00
 -1         3 3.12640E-13 4.44841E-18-1.74860E-05
 -1         4 3.12640E-13 4.94972E-18-1.74860E-05
 -1         5 0.00000E+00 0.00000E+00 0.00000E+00
 -1         6 0.00000E+00 0.00000E+00 0.00000E+00
 -1         7 3.12641E-13 4.44989E-18-1.74860E-05
 -1         8 3.12641E-13 4.95228E-18-1.74860E-05
 -1         9 4.12743E-14 5.06154E-17-2.74864E-05
 -1        10 4.12790E-14 5.52177E-17-2.74864E-05
 -1        11 0.00000E+00 0.00000E+00-1.77425E-04
 -1        12 0.00000E+00 0.00000E+00-1.77425E-04
 -1        13 4.12696E-14 5.52121E-17-2.74864E-05
 -1        14 4.12742E-14 5.97764E-17-2.74864E-05
 -1        15 0.00000E+00 0.00000E+00-1.77425E-04
 -1        16 0.00000E+00 0.00000E+00-1.77425E-04
 -3
    1PSTEP                        10           9           2          
  100CL  110 1.84179E-07          16                     1   10           1
 -4  DISP        4    1
 -5  D1          1    2    1    0
 -5  D2          1    2    2    0
 -5  D3          1    2    3    0
 -5  ALL         1    2    0    0    1ALL
 -1         1 0.00000E+00 0.00000E+00 0.00000E+00
 -1         2 0.00000E+00 0.00000E+00 0.00000E+00
 -1         3 4.59821E-13 5.20544E-18-2.78527E-05
 -1         4 4.59821E-13 4.22465E-18-2.78527E-05
 -1         5 0.00000E+00 0.00000E+00 0.00000E+00
 -1         6 0.00000E+00 0.00000E+00 0.00000E+00
 -1         7 4.59820E-13 5.20883E-18-2.78527E-05
 -1         8 4.59820E-13 4.22754E-18-2.78527E-05
 -1         9 1.88427E-13 5.18432E-17-3.78541E-05
 -1        10 1.88431E-13 5.52075E-17-3.78541E-05
 -1        11 0.00000E+00 0.00000E+00-2.83142E-04
 -1        12 0.00000E+00 0.00000E+00-2.83142E-04
 -1        13 1.88424E-13 5.52397E-17-3.78541E-05
 -1        14 1.88427E-13 5.85266E-17-3.78541E-05
 -1        15 0.00000E+00 0.00000E+00-2.83142E-04
 -1        16 0.00000E+00 0.00000E+00-2.83142E-04
 -3
    1PSTEP                        11          10           2          
  100CL  111 2.04643E-07          16                     1   11           1
 -4  DISP        4    1
 -5  D1          1    2    1    0
 -5  D2          1    2    2    0
 -5  D3          1    2    3    0
 -5  ALL         1    2    0    0    1ALL
 -1         1 0.00000E+00 0.00000E+00 0.00000E+00
 -1         2 0.00000E+00 0.00000E+00 0.00000E+00
 -1         3 7.19785E-13 4.07253E-18-4.53866E-05
 -1         4 7.19785E-13 5.17453E-18-4.53866E-05
 -1         5 0.00000E+00 0.00000E+00 0.00000E+00
 -1         6 0.00000E+00 0.00000E+00 0.00000E+00
 -1         7 7.19786E-13 4.08100E-18-4.53866E-05
 -1         8 7.19786E-13 5.18254E-18-4.53866E-05
 -1         9 4.48346E-13 5.47060E-17-5.53898E-05
 -1        10 4.48346E-13 5.51390E-17-5.53898E-05
 -1        11 0.00000E+00 0.00000E+00-3.58047E-04
 -1        12 0.00000E+00 0.00000E+00-3.58047E-04
 -1        13 4.48345E-13 5.51336E-17-5.53898E-05
 -1        14 4.48346E-13 5.54976E-17-5.53898E-05
 -1        15 0.00000E+00 0.00000E+00-3.58047E-04
 -1        16 0.00000E+00 0.00000E+00-3.58047E-04
 -3
    1PSTEP                        12          11           2          
  100CL  112 2.25108E-07          16                     1   12           1
 -4  DISP        4    1
 -5  D1          1    2    1    0
 -5  D2          1    2    2    0
 -5  D3          1    2    3    0
 -5  ALL         1    2    0    0    1ALL
 -1         1 0.00000E+00 0.00000E+00 0.00000E+00
 -1         2 0.00000E+00 0.00000E+00 0.00000E+00
 -1         3 9.35762E-13 5.93092E-18-5.77938E-05
 -1         4 9.35762E-13 3.41485E-18-5.77938E-05
 -1         5 0.00000E+00 0.00000E+00 0.00000E+00
 -1         6 0.00000E+00 0.00000E+00 0.00000E+00
 -1         7 9.35760E-13 5.94278E-18-5.77938E-05
 -1         8 9.35760E-13 3.43115E-18-5.77938E-05
 -1         9 6.64269E-13 5.63635E-17-6.77991E-05
 -1        10 6.64268E-13 5.52031E-17-6.77991E-05
 -1        11 0.00000E+00 0.00000E+00-3.49695E-04
 -1        12 0.00000E+00 0.00000E+00-3.49695E-04
 -1        13 6.64270E-13 5.52074E-17-6.77991E-05
 -1        14 6.64269E-13 5.39230E-17-6.77991E-05
 -1        15 0.00000E+00 0.00000E+00-3.49695E-04
 -1        16 0.00000E+00 0.00000E+00-3.49695E-04
 -3
    1PSTEP                        13          12           2          
  100CL  113 2.45572E-07          16                     1   13           1
 -4  DISP        4    1
 -5  D1          1    2    1    0
 -5  D2          1    2    2    0
 -5  D3          1    2    3    0
 -5  ALL         1    2    0    0    1ALL
 -1         1 0.00000E+00 0.00000E+00 0.00000E+00
 -1         2 0.00000E+00 0.00000E+00 0.00000E+00
 -1         3 9.27998E-13 3.30809E-18-5.64238E-05
 -1         4 9.27998E-13 6.24606E-18-5.64238E-05
 -1         5 0.00000E+00 0.00000E+00 0.00000E+00
 -1         6 0.00000E+00 0.00000E+00 0.00000E+00
 -1         7 9.28001E-13 3.31275E-18-5.64238E-05
 -1         8 9.28001E-13 6.24861E-18-5.64238E-05
 -1         9 6.56540E-13 5.76929E-17-6.64271E-05
 -1        10 6.56537E-13 5.52539E-17-6.64271E-05
 -1        11 0.00000E+00 0.00000E+00-2.63889E-04
 -1        12 0.00000E+00 0.00000E+00-2.63889E-04
 -1        13 6.56542E-13 5.52403E-17-6.64271E-05
 -1        14 6.56540E-13 5.25940E-17-6.64271E-05
 -1        15 0.00000E+00 0.00000E+00-2.63889E-04
 -1        16 0.00000E+00 0.00000E+00-2.63889E-04
 -3
    1PSTEP                        14          13           2          
  100CL  114 2.66036E-07          16                     1   14           1
 -4  DISP        4    1
 -5  D1          1    2    1    0
 -5  D2          1    2    2    0
 -5  D3          1    2    3    0
 -5  ALL         1    2    0    0    1ALL
 -1         1 0.00000E+00 0.00000E+00 0.00000E+00
 -1         2 0.00000E+00 0.00000E+00 0.00000E+00
 -1         3 6.81277E-13 7.42234E-18-4.22159E-05
 -1         4 6.81277E-13 1.95781E-18-4.22159E-05
 -1         5 0.00000E+00 0.00000E+00 0.00000E+00
 -1         6 0.00000E+00 0.00000E+00 0.00000E+00
 -1         7 6.81271E-13 7.43187E-18-4.22159E-05
 -1         8 6.81271E-13 1.96499E-18-4.22159E-05
 -1         9 4.09857E-13 5.37535E-17-5.22176E-05
 -1        10 4.09858E-13 5.52220E-17-5.22176E-05
 -1        11 0.00000E+00 0.00000E+00-1.60690E-04
 -1        12 0.00000E+00 0.00000E+00-1.60690E-04
 -1        13 4.09855E-13 5.51596E-17-5.22176E-05
 -1        14 4.09857E-13 5.64132E-17-5.22176E-05
 -1        15 0.00000E+00 0.00000E+00-1.60690E-04
 -1        16 0.00000E+00 0.00000E+00-1.60690E-04
 -3
    1PSTEP                        15          14           2          
  100CL  115 2.86501E-07          16                     1   15           1
 -4  DISP        4    1
 -5  D1          1    2    1    0
 -5  D2          1    2    2    0
 -5  D3          1    2    3    0
 -5  ALL         1    2    0    0    1ALL
 -1         1 0.00000E+00 0.00000E+00 0.00000E+00
 -1         2 0.00000E+00 0.00000E+00 0.00000E+00
 -1         3 4.00525E-13 6.01923E-19-2.50834E-05
 -1         4 4.00525E-13 8.55435E-18-2.50834E-05
 -1         5 0.00000E+00 0.00000E+00 0.00000E+00
 -1         6 0.00000E+00 0.00000E+00 0.00000E+00
 -1         7 4.00532E-13 6.12405E-19-2.50834E-05
 -1         8 4.00532E-13 8.56333E-18-2.50834E-05
 -1         9 1.29139E-13 5.43351E-17-3.50841E-05
 -1        10 1.29140E-13 5.51684E-17-3.50841E-05
 -1        11 0.00000E+00 0.00000E+00-1.12521E-04
 -1        12 0.00000E+00 0.00000E+00-1.12521E-04
 -1        13 1.29138E-13 5.50117E-17-3.50841E-05
 -1        14 1.29139E-13 5.56594E-17-3.50841E-05
 -1        15 0.00000E+00 0.00000E+00-1.12521E-04
 -1        16 0.00000E+00 0.00000E+00-1.12521E-04
 -3
    1PSTEP                        16          15           2          
  100CL  116 3.06965E-07          16                     1   16           1
 -4  DISP        4    1
 -5  D1          1    2    1    0
 -5  D2          1    2    2    0
 -5  D3          1    2    3    0
 -5  ALL         1    2    0    0    1ALL
 -1         1 0.00000E+00 0.00000E+00 0.00000E+00
 -1         2 0.00000E+00 0.00000E+00 0.00000E+00
 -1         3 2.97890E-13 1.11144E-17-1.70713E-05
 -1         4 2.97890E-13-1.79991E-18-1.70713E-05
 -1         5 0.00000E+00 0.00000E+00 0.00000E+00
 -1         6 0.00000E+00 0.00000E+00 0.00000E+00
 -1         7 2.97877E-13 1.11215E-17-1.70713E-05
 -1         8 2.97877E-13-1.79279E-18-1.70713E-05
 -1         9 2.65103E-14 4.94103E-17-2.70714E-05
 -1        10 2.65162E-14 5.52475E-17-2.70714E-05
 -1        11 0.00000E+00 0.00000E+00-1.53251E-04
 -1        12 0.00000E+00 0.00000E+00-1.53251E-04
 -1        13 2.65046E-14 5.50864E-17-2.70714E-05
 -1        14 2.65103E-14 6.07145E-17-2.70714E-05
 -1        15 0.00000E+00 0.00000E+00-1.53251E-04
 -1        16 0.00000E+00 0.00000E+00-1.53251E-04
 -3
    1PSTEP                        17          16           2          
  100CL  117 3.27429E-07          16                     1   17           1
 -4  DISP        4    1
 -5  D1          1    2    1    0
 -5  D2          1    2    2    0
 -5  D3          1    2    3    0
 -5  ALL         1    2    0    0    1ALL
 -1         1 0.00000E+00 0.00000E+00 0.00000E+00
 -1         2 0.00000E+00 0.00000E+00 0.00000E+00
 -1         3 4.10072E-13-5.30020E-18-2.38382E-05
 -1         4 4.10072E-13 1.47191E-17-2.38382E-05
 -1         5 0.00000E+00 0.00000E+00 0.00000E+00
 -1         6 0.00000E+00 0.00000E+00 0.00000E+00
 -1         7 4.10092E-13-5.30116E-18-2.38382E-05
 -1         8 4.10092E-13 1.47182E-17-2.38382E-05
 -1         9 1.38686E-13 5.74809E-17-3.38392E-05
 -1        10 1.38684E-13 5.52172E-17-3.38392E-05
 -1        11 0.00000E+00 0.00000E+00-2.54267E-04
 -1        12 0.00000E+00 0.00000E+00-2.54267E-04
 -1        13 1.38689E-13 5.51560E-17-3.38392E-05
 -1        14 1.38686E-13 5.27155E-17-3.38392E-05
 -1        15 0.00000E+00 0.00000E+00-2.54267E-04
 -1        16 0.00000E+00 0.00000E+00-2.54267E-04
 -3
    1PSTEP                        18          17           2          
  100CL  118 3.47894E-07          16                     1   18           1
 -4  DISP        4    1
 -5  D1          1    2    1    0
 -5  D2          1    2    2    0
 -5  D3          1    2    3    0
 -5  ALL         1    2    0    0    1ALL
 -1         1 0.00000E+00 0.00000E+00 0.00000E+00
 -1         2 0.00000E+00 0.00000E+00 0.00000E+00
 -1         3 6.49835E-13 2.07667E-17-4.06008E-05
 -1         4 6.49835E-13-1.15179E-17-4.06008E-05
 -1         5 0.00000E+00 0.00000E+00 0.00000E+00
 -1         6 0.00000E+00 0.00000E+00 0.00000E+00
 -1         7 6.49802E-13 2.07633E-17-4.06008E-05
 -1         8 6.49802E-13-1.15218E-17-4.06008E-05
 -1         9 3.78384E-13 4.93961E-17-5.06032E-05
 -1        10 3.78390E-13 5.51929E-17-5.06032E-05
 -1        11 0.00000E+00 0.00000E+00-3.44701E-04
 -1        12 0.00000E+00 0.00000E+00-3.44701E-04
 -1        13 3.78379E-13 5.50448E-17-5.06032E-05
 -1        14 3.78384E-13 6.06035E-17-5.06032E-05
 -1        15 0.00000E+00 0.00000E+00-3.44701E-04
 -1        16 0.00000E+00 0.00000E+00-3.44701E-04
 -3
    1PSTEP                        19          18           2          
  100CL  119 3.68358E-07          16                     1   19           1
 -4  DISP        4    1
 -5  D1          1    2    1    0
 -5  D2          1    2    2    0
 -5  D3          1    2    3    0
 -5  ALL         1    2    0    0    1ALL
 -1         1 0.00000E+00 0.00000E+00 0.00000E+00
 -1         2 0.00000E+00 0.00000E+00 0.00000E+00
 -1         3 8.86028E-13-2.02343E-17-5.55831E-05
 -1         4 8.86028E-13 2.94712E-17-5.55831E-05
 -1         5 0.00000E+00 0.00000E+00 0.00000E+00
 -1         6 0.00000E+00 0.00000E+00 0.00000E+00
 -1         7 8.86077E-13-2.02229E-17-5.55831E-05
 -1         8 8.86077E-13 2.94809E-17-5.55831E-05
 -1         9 6.14568E-13 6.90670E-17-6.55876E-05
 -1        10 6.14554E-13 5.53176E-17-6.55876E-05
 -1        11 0.00000E+00 0.00000E+00-3.61222E-04
 -1        12 0.00000E+00 0.00000E+00-3.61222E-04
 -1        13 6.14582E-13 5.50774E-17-6.55876E-05
 -1        14 6.14568E-13 4.09142E-17-6.55876E-05
 -1        15 0.00000E+00 0.00000E+00-3.61222E-04
 -1        16 0.00000E+00 0.00000E+00-3.61222E-04
 -3
    1PSTEP                        20          19           2          
  100CL  120 3.88822E-07          16                     1   20           1
 -4  DISP        4    1
 -5  D1          1    2    1    0
 -5  D2          1    2    2    0
 -5  D3          1    2    3    0
 -5  ALL         1    2    0    0    1ALL
 -1         1 0.00000E+00 0.00000E+00 0.00000E+00
 -1         2 0.00000E+00 0.00000E+00 0.00000E+00
 -1         3 9.55059E-13 4.38564E-17-5.83275E-05
 -1         4 9.55059E-13-3.42725E-17-5.83275E-05
 -1         5 0.00000E+00 0.00000E+00 0.00000E+00
 -1         6 0.00000E+00 0.00000E+00 0.00000E+00
 -1         7 9.54981E-13 4.38543E-17-5.83275E-05
 -1         8 9.54981E-13-3.42743E-17-5.83275E-05
 -1         9 6.83495E-13 2.93592E-17-6.83342E-05
 -1        10 6.83521E-13 5.54795E-17-6.83342E-05
 -1        11 0.00000E+00 0.00000E+00-2.92239E-04
 -1        12 0.00000E+00 0.00000E+00-2.92239E-04
 -1        13 6.83470E-13 5.52137E-17-6.83342E-05
 -1        14 6.83495E-13 8.09526E-17-6.83342E-05
 -1        15 0.00000E+00 0.00000E+00-2.92239E-04
 -1        16 0.00000E+00 0.00000E+00-2.92239E-04
 -3
    1PSTEP                        21          20           2          
  100CL  121 4.09287E-07          16                     1   21           1
 -4  DISP        4    1
 -5  D1          1    2    1    0
 -5  D2          1    2    2    0
 -5  D3          1    2    3    0
 -5  ALL         1    2    0    0    1ALL
 -1         1 0.00000E+00 0.00000E+00 0.00000E+00
 -1         2 0.00000E+00 0.00000E+00 0.00000E+00
 -1         3 7.70836E-13-5.64151E-17-4.69140E-05
 -1         4 7.70836E-13 6.58482E-17-4.69140E-05
 -1         5 0.00000E+00 0.00000E+00 0.00000E+00
 -1         6 0.00000E+00 0.00000E+00 0.00000E+00
 -1         7 7.70958E-13-5.64141E-17-4.69140E-05
 -1         8 7.70958E-13 6.58525E-17-4.69140E-05
 -1         9 4.99415E-13 7.02976E-17-5.69190E-05
 -1        10 4.99400E-13 5.53868E-17-5.69190E-05
 -1        11 0.00000E+00 0.00000E+00-1.86003E-04
 -1        12 0.00000E+00 0.00000E+00-1.86003E-04
 -1        13 4.99430E-13 5.51751E-17-5.69190E-05
 -1        14 4.99415E-13 3.97623E-17-5.69190E-05
 -1        15 0.00000E+00 0.00000E+00-1.86003E-04
 -1        16 0.00000E+00 0.00000E+00-1.86003E-04
 -3
    1PSTEP                        22          21           2          
  100CL  122 4.29751E-07          16                     1   22           1
 -4  DISP        4    1
 -5  D1          1    2    1    0
 -5  D2          1    2    2    0
 -5  D3          1    2    3    0
 -5  ALL         1    2    0    0    1ALL
 -1         1 0.00000E+00 0.00000E+00 0.00000E+00
 -1         2 0.00000E+00 0.00000E+00 0.00000E+00
 -1         3 4.67481E-13 9.98792E-17-2.92892E-05
 -1         4 4.67481E-13-9.07200E-17-2.92892E-05
 -1         5 0.00000E+00 0.00000E+00 0.00000E+00
 -1         6 0.00000E+00 0.00000E+00 0.00000E+00
 -1         7 4.67290E-13 9.98859E-17-2.92892E-05
 -1         8 4.67290E-13-9.07112E-17-2.92892E-05
 -1         9 1.95936E-13 9.31414E-18-3.92931E-05
 -1        10 1.95982E-13 5.52742E-17-3.92931E-05
 -1        11 0.00000E+00 0.00000E+00-1.17018E-04
 -1        12 0.00000E+00 0.00000E+00-1.17018E-04
 -1        13 1.95891E-13 5.50190E-17-3.92931E-05
 -1        14 1.95936E-13 1.00486E-16-3.92931E-05
 -1        15 0.00000E+00 0.00000E+00-1.17018E-04
 -1        16 0.00000E+00 0.00000E+00-1.17018E-04
 -3
    1PSTEP                        23          22           2          
  100CL  123 4.50215E-07          16                     1   23           1
 -4  DISP        4    1
 -5  D1          1    2    1    0
 -5  D2          1    2    2    0
 -5  D3          1    2    3    0
 -5  ALL         1    2    0    0    1ALL
 -1         1 0.00000E+00 0.00000E+00 0.00000E+00
 -1         2 0.00000E+00 0.00000E+00 0.00000E+00
 -1         3 2.94228E-13-1.45666E-16-1.78197E-05
 -1         4 2.94228E-13 1.54826E-16-1.78197E-05
 -1         5 0.00000E+00 0.00000E+00 0.00000E+00
 -1         6 0.00000E+00 0.00000E+00 0.00000E+00
 -1         7 2.94528E-13-1.45660E-16-1.78197E-05
 -1         8 2.94528E-13 1.54829E-16-1.78197E-05
 -1         9 2.29473E-14 9.87662E-17-2.78230E-05
 -1        10 2.29038E-14 5.53177E-17-2.78230E-05
 -1        11 0.00000E+00 0.00000E+00-1.33768E-04
 -1        12 0.00000E+00 0.00000E+00-1.33768E-04
 -1        13 2.29914E-14 5.50547E-17-2.78230E-05
 -1        14 2.29474E-14 1.10961E-17-2.78230E-05
 -1        15 0.00000E+00 0.00000E+00-1.33768E-04
 -1        16 0.00000E+00 0.00000E+00-1.33768E-04
 -3
    1PSTEP                        24          23           2          
  100CL  124 4.70680E-07          16                     1   24           1
 -4  DISP        4    1
 -5  D1          1    2    1    0
 -5  D2          1    2    2    0
 -5  D3          1    2    3    0
 -5  ALL         1    2    0    0    1ALL
 -1         1 0.00000E+00 0.00000E+00 0.00000E+00
 -1         2 0.00000E+00 0.00000E+00 0.00000E+00
 -1         3 3.61866E-13 2.40621E-16-2.06009E-05
 -1         4 3.61866E-13-2.31142E-16-2.06009E-05
 -1         5 0.00000E+00 0.00000E+00 0.00000E+00
 -1         6 0.00000E+00 0.00000E+00 0.00000E+00
 -1         7 3.61395E-13 2.40626E-16-2.06009E-05
 -1         8 3.61395E-13-2.31144E-16-2.06009E-05
 -1         9 9.01834E-14-8.50298E-17-3.06049E-05
 -1        10 9.03238E-14 5.54380E-17-3.06049E-05
 -1        11 0.00000E+00 0.00000E+00-2.24492E-04
 -1        12 0.00000E+00 0.00000E+00-2.24492E-04
 -1        13 9.00435E-14 5.52002E-17-3.06049E-05
 -1        14 9.01835E-14 1.95163E-16-3.06049E-05
 -1        15 0.00000E+00 0.00000E+00-2.24492E-04
 -1        16 0.00000E+00 0.00000E+00-2.24492E-04
 -3
    1PSTEP                        25          24           2          
  100CL  125 4.91144E-07          16                     1   25           1
 -4  DISP        4    1
 -5  D1          1    2    1    0
 -5  D2          1    2    2    0
 -5  D3          1    2    3    0
 -5  ALL         1    2    0    0    1ALL
 -1         1 0.00000E+00 0.00000E+00 0.00000E+00
 -1         2 0.00000E+00 0.00000E+00 0.00000E+00
 -1         3 5.86368E-13-3.71124E-16-3.56629E-05
 -1         4 5.86368E-13 3.80522E-16-3.56629E-05
 -1         5 0.00000E+00 0.00000E+00 0.00000E+00
 -1         6 0.00000E+00 0.00000E+00 0.00000E+00
 -1         7 5.87120E-13-3.71120E-16-3.56629E-05
 -1         8 5.87120E-13 3.80520E-16-3.56629E-05
 -1         9 3.15262E-13 1.56576E-16-4.56681E-05
 -1        10 3.15160E-13 5.54357E-17-4.56681E-05
 -1        11 0.00000E+00 0.00000E+00-3.25510E-04
 -1        12 0.00000E+00 0.00000E+00-3.25510E-04
 -1        13 3.15363E-13 5.51668E-17-4.56681E-05
 -1        14 3.15262E-13-4.65387E-17-4.56681E-05
 -1        15 0.00000E+00 0.00000E+00-3.25510E-04
 -1        16 0.00000E+00 0.00000E+00-3.25510E-04
 -3