
                        S T E P       1


                                INCREMENT     1


 displacements (vx,vy,vz) for set NALL and time  0.1000000E+01

         1  5.000000E+04  0.000000E+00  0.000000E+00
         2  5.000000E+04  2.224432E+00  0.000000E+00
         4  5.000000E+04  0.000000E+00  0.000000E+00
         6  5.000000E+04  2.004125E+00  1.209585E+00
         7  5.000000E+04  0.000000E+00  0.000000E+00
         8  5.000000E+04  1.999999E+00  1.209585E+00
         9  5.000000E+04  0.000000E+00  0.000000E+00
        10  5.000000E+04  2.000000E+00  0.000000E+00
        11  5.000000E+04  0.000000E+00  0.000000E+00

 mass flows for set NALL and time  0.1000000E+01

         1  5.000000E+04
         2  5.000000E+04
         4  5.000000E+04
         6  5.000000E+04
         7  5.000000E+04
         8  5.000000E+04
         9  5.000000E+04
        10  5.000000E+04
        11  5.000000E+04

 network pressures (total pressure for gases, static pressure for liquids and fluid depth for channels) for set NALL and time  0.1000000E+01

         1  0.000000E+00
         2  2.224432E+00
         4  0.000000E+00
         6  2.004125E+00
         7  0.000000E+00
         8  1.999999E+00
         9  0.000000E+00
        10  2.000000E+00
        11  0.000000E+00
