    1C
    1UUSER                                                              
    1UDATE              19.november.2022                                
    1UTIME              18:08:09                                        
    1UHOST                                                              
    1UPGM               CalculiX                                        
    1UVERSION           Version DEVELOPMENT                             
    1UCOMPILETIME       Sat Nov 19 16:45:09 CET 2022                    
    1UDIR                                                               
    1UDBN                                                               
    1UMAT    1WATER                                                     
    2C                            22                                     1
 -1         1 0.00000E+00 0.00000E+00 0.00000E+00
 -1         2 0.00000E+00 0.00000E+00 0.00000E+00
 -1         3 5.00000E-01 0.00000E+00 0.00000E+00
 -1         4 1.00000E+00 0.00000E+00 0.00000E+00
 -1         5 1.50000E+00 0.00000E+00 0.00000E+00
 -1         6 2.00000E+00 0.00000E+00 0.00000E+00
 -1         7 2.50000E+00 0.00000E+00 0.00000E+00
 -1         8 3.00000E+00 0.00000E+00 0.00000E+00
 -1         9 3.00000E+00-3.50000E+00 0.00000E+00
 -1        10 3.00000E+00-3.00000E+00 0.00000E+00
 -1        11 3.00000E+00-2.50000E+00 0.00000E+00
 -1        12 3.00000E+00-2.00000E+00 0.00000E+00
 -1        13 3.00000E+00-1.50000E+00 0.00000E+00
 -1        14 3.00000E+00-1.00000E+00 0.00000E+00
 -1        15 3.00000E+00-5.00000E-01 0.00000E+00
 -1        16 3.50000E+00 0.00000E+00 0.00000E+00
 -1        17 4.00000E+00 0.00000E+00 0.00000E+00
 -1        18 4.50000E+00 0.00000E+00 0.00000E+00
 -1        19 5.00000E+00 0.00000E+00 0.00000E+00
 -1        20 5.50000E+00 0.00000E+00 0.00000E+00
 -1        21 6.00000E+00 0.00000E+00 0.00000E+00
 -1        22 6.50000E+00 0.00000E+00 0.00000E+00
 -3
    3C                            12                                     1
 -1         1   11    0    1
 -2         1         2
 -1         2   12    0    1
 -2         2         4         3
 -1         3   12    0    1
 -2         4         6         5
 -1         4   12    0    1
 -2         6         8         7
 -1         5   11    0    1
 -2         9        10
 -1         6   12    0    1
 -2        10        12        11
 -1         7   12    0    1
 -2        12        14        13
 -1         8   12    0    1
 -2        14         8        15
 -1         9   12    0    1
 -2         8        17        16
 -1        10   12    0    1
 -2        17        19        18
 -1        11   12    0    1
 -2        19        21        20
 -1        12   11    0    1
 -2        21        22
 -3
    1PSTEP                         1           1           1          
  100CL  101 1.000000000          22                     0    1           1
 -4  NDTEMP      1    1
 -5  T           1    1    0    0
 -1         1 2.00000E+01
 -1         2 2.00000E+01
 -1         3 2.00000E+01
 -1         4 2.00000E+01
 -1         5 2.00000E+01
 -1         6 2.00000E+01
 -1         7 3.50000E+01
 -1         8 5.00000E+01
 -1         9 8.00000E+01
 -1        10 8.00000E+01
 -1        11 8.00000E+01
 -1        12 8.00000E+01
 -1        13 8.00000E+01
 -1        14 8.00000E+01
 -1        15 6.50000E+01
 -1        16 5.00000E+01
 -1        17 5.00000E+01
 -1        18 5.00000E+01
 -1        19 5.00000E+01
 -1        20 5.00000E+01
 -1        21 5.00000E+01
 -1        22 5.00000E+01
 -3
    1PSTEP                         2           1           1          
  100CL  101 1.000000000          22                     0    1           1
 -4  MAFLOW      1    1
 -5  MF          1    1    0    0
 -1         1 3.00000E+04
 -1         2 3.00000E+04
 -1         3 3.00000E+04
 -1         4 3.00000E+04
 -1         5 3.00000E+04
 -1         6 3.00000E+04
 -1         7 3.00000E+04
 -1         8 6.00000E+04
 -1         9 3.00000E+04
 -1        10 3.00000E+04
 -1        11 3.00000E+04
 -1        12 3.00000E+04
 -1        13 3.00000E+04
 -1        14 3.00000E+04
 -1        15 3.00000E+04
 -1        16 6.00000E+04
 -1        17 6.00000E+04
 -1        18 6.00000E+04
 -1        19 6.00000E+04
 -1        20 6.00000E+04
 -1        21 6.00000E+04
 -1        22 6.00000E+04
 -3
    1PSTEP                         3           1           1          
  100CL  101 1.000000000          22                     0    1           1
 -4  DEPTH       1    1
 -5  DEPTH       1    1    0    0
 -1         1 3.66697E+00
 -1         2 3.66697E+00
 -1         3 2.23348E+00
 -1         4 7.99990E-01
 -1         5 8.11661E-01
 -1         6 8.23333E-01
 -1         7 8.23378E-01
 -1         8 8.23423E-01
 -1         9 3.66697E+00
 -1        10 3.66697E+00
 -1        11 2.23348E+00
 -1        12 7.99990E-01
 -1        13 8.11661E-01
 -1        14 8.23333E-01
 -1        15 8.23378E-01
 -1        16 8.23454E-01
 -1        17 8.23485E-01
 -1        18 8.30848E-01
 -1        19 8.38212E-01
 -1        20 6.69106E-01
 -1        21 5.00000E-01
 -1        22 5.00000E-01
 -3
 9999
