
                        S T E P       1


                                INCREMENT     1


 displacements (vx,vy,vz) for set NALL and time  0.1000000E+01

         1  6.000000E+04  0.000000E+00  0.000000E+00
         2  6.000000E+04  3.666972E+00  0.000000E+00
         4  6.000000E+04  0.000000E+00  0.000000E+00
         6  6.000000E+04  7.999900E-01  1.542457E+00
         7  6.000000E+04  0.000000E+00  0.000000E+00
         8  6.000000E+04  8.158226E-01  1.177115E+00
         9  4.000000E+04  0.000000E+00  0.000000E+00
        10  4.000000E+04  8.130460E-01  1.177115E+00
        11  4.000000E+04  0.000000E+00  0.000000E+00
        12  6.000000E+04  8.109266E-01  1.542457E+00
        13  6.000000E+04  0.000000E+00  0.000000E+00
        14  6.000000E+04  8.141710E-01  1.542457E+00
        15  6.000000E+04  0.000000E+00  0.000000E+00
        16  6.000000E+04  8.290071E-01  1.542457E+00
        17  6.000000E+04  0.000000E+00  0.000000E+00
        18  6.000000E+04  5.000000E-01  0.000000E+00
        19  6.000000E+04  0.000000E+00  0.000000E+00
        20 -2.000000E+04  0.000000E+00  0.000000E+00
        21  0.000000E+00  0.000000E+00  0.000000E+00
        22  2.000000E+04  0.000000E+00  0.000000E+00
        23  0.000000E+00  0.000000E+00  0.000000E+00

 mass flows for set NALL and time  0.1000000E+01

         1  6.000000E+04
         2  6.000000E+04
         4  6.000000E+04
         6  6.000000E+04
         7  6.000000E+04
         8  6.000000E+04
         9  4.000000E+04
        10  4.000000E+04
        11  4.000000E+04
        12  6.000000E+04
        13  6.000000E+04
        14  6.000000E+04
        15  6.000000E+04
        16  6.000000E+04
        17  6.000000E+04
        18  6.000000E+04
        19  6.000000E+04
        20 -2.000000E+04
        21  0.000000E+00
        22  2.000000E+04
        23  0.000000E+00

 network pressures (total pressure for gases, static pressure for liquids and fluid depth for channels) for set NALL and time  0.1000000E+01

         1  0.000000E+00
         2  3.666972E+00
         4  0.000000E+00
         6  7.999900E-01
         7  0.000000E+00
         8  8.158226E-01
         9  0.000000E+00
        10  8.130460E-01
        11  0.000000E+00
        12  8.109266E-01
        13  0.000000E+00
        14  8.141710E-01
        15  0.000000E+00
        16  8.290071E-01
        17  0.000000E+00
        18  5.000000E-01
        19  0.000000E+00
        20  0.000000E+00
        21  0.000000E+00
        22  0.000000E+00
        23  0.000000E+00

 temperatures for set NALL and time  0.1000000E+01

         1 -2.741500E+02
         2  2.000000E+01
         4 -2.741500E+02
         6  2.000000E+01
         7 -2.741500E+02
         8  2.000000E+01
         9 -2.741500E+02
        10  2.000000E+01
        11 -2.741500E+02
        12  4.666667E+01
        13 -2.741500E+02
        14  4.666667E+01
        15 -2.741500E+02
        16  4.666667E+01
        17 -2.741500E+02
        18  4.666667E+01
        19 -2.741500E+02
        20  2.000000E+01
        21  2.000000E+01
        22  1.000000E+02
        23  2.000000E+01
