
                        S T E P       1


                                INCREMENT     1


 displacements (vx,vy,vz) for set NALL and time  0.1000000E+01

         1  3.000000E+04  0.000000E+00  0.000000E+00
         2  3.000000E+04  3.666972E+00  0.000000E+00
         3  3.000000E+04  0.000000E+00  0.000000E+00
         4  3.000000E+04  7.999900E-01  1.542457E+00
         5  3.000000E+04  0.000000E+00  0.000000E+00
         6  3.000000E+04  8.233329E-01  1.542457E+00
         7  3.000000E+04  0.000000E+00  0.000000E+00
         8  6.000000E+04  8.234234E-01  1.542457E+00
         9  3.000000E+04  0.000000E+00  0.000000E+00
        10  3.000000E+04  3.666972E+00  0.000000E+00
        11  3.000000E+04  0.000000E+00  0.000000E+00
        12  3.000000E+04  7.999900E-01  1.542457E+00
        13  3.000000E+04  0.000000E+00  0.000000E+00
        14  3.000000E+04  8.233329E-01  1.542457E+00
        15  3.000000E+04  0.000000E+00  0.000000E+00
        16  6.000000E+04  0.000000E+00  0.000000E+00
        17  6.000000E+04  8.234847E-01  1.542457E+00
        18  6.000000E+04  0.000000E+00  0.000000E+00
        19  6.000000E+04  8.382118E-01  1.542457E+00
        20  6.000000E+04  0.000000E+00  0.000000E+00
        21  6.000000E+04  5.000000E-01  0.000000E+00
        22  6.000000E+04  0.000000E+00  0.000000E+00

 mass flows for set NALL and time  0.1000000E+01

         1  3.000000E+04
         2  3.000000E+04
         3  3.000000E+04
         4  3.000000E+04
         5  3.000000E+04
         6  3.000000E+04
         7  3.000000E+04
         8  6.000000E+04
         9  3.000000E+04
        10  3.000000E+04
        11  3.000000E+04
        12  3.000000E+04
        13  3.000000E+04
        14  3.000000E+04
        15  3.000000E+04
        16  6.000000E+04
        17  6.000000E+04
        18  6.000000E+04
        19  6.000000E+04
        20  6.000000E+04
        21  6.000000E+04
        22  6.000000E+04

 network pressures (total pressure for gases, static pressure for liquids and fluid depth for channels) for set NALL and time  0.1000000E+01

         1  0.000000E+00
         2  3.666972E+00
         3  0.000000E+00
         4  7.999900E-01
         5  0.000000E+00
         6  8.233329E-01
         7  0.000000E+00
         8  8.234234E-01
         9  0.000000E+00
        10  3.666972E+00
        11  0.000000E+00
        12  7.999900E-01
        13  0.000000E+00
        14  8.233329E-01
        15  0.000000E+00
        16  0.000000E+00
        17  8.234847E-01
        18  0.000000E+00
        19  8.382118E-01
        20  0.000000E+00
        21  5.000000E-01
        22  0.000000E+00

 temperatures for set NALL and time  0.1000000E+01

         1 -2.741500E+02
         2  2.000000E+01
         3 -2.741500E+02
         4  2.000000E+01
         5 -2.741500E+02
         6  2.000000E+01
         7 -2.741500E+02
         8  5.000000E+01
         9 -2.741500E+02
        10  8.000000E+01
        11 -2.741500E+02
        12  8.000000E+01
        13 -2.741500E+02
        14  8.000000E+01
        15 -2.741500E+02
        16 -2.741500E+02
        17  5.000000E+01
        18 -2.741500E+02
        19  5.000000E+01
        20 -2.741500E+02
        21  5.000000E+01
        22 -2.741500E+02
