
                        S T E P       1


                                INCREMENT     1


 displacements (vx,vy,vz) for set NALL and time  0.1000000E+01

         1  2.996742E+04  0.000000E+00  0.000000E+00
         2  2.996742E+04  6.403175E+00  0.000000E+00
         4  2.996742E+04  0.000000E+00  0.000000E+00
         6  2.996742E+04  3.547501E+00  1.243118E+00
         7  2.996742E+04  0.000000E+00  0.000000E+00
         8  2.996742E+04  3.799952E+00  9.709831E-01
         9  2.996742E+04  0.000000E+00  0.000000E+00
        10  2.996742E+04  3.800000E+00  0.000000E+00
        11  2.996742E+04  0.000000E+00  0.000000E+00

 mass flows for set NALL and time  0.1000000E+01

         1  2.996742E+04
         2  2.996742E+04
         4  2.996742E+04
         6  2.996742E+04
         7  2.996742E+04
         8  2.996742E+04
         9  2.996742E+04
        10  2.996742E+04
        11  2.996742E+04

 network pressures (total pressure for gases, static pressure for liquids and fluid depth for channels) for set NALL and time  0.1000000E+01

         1  0.000000E+00
         2  6.403175E+00
         4  0.000000E+00
         6  3.547501E+00
         7  0.000000E+00
         8  3.799952E+00
         9  0.000000E+00
        10  3.800000E+00
        11  0.000000E+00
