
                        S T E P       1


                                INCREMENT     1


 displacements (vx,vy,vz) for set NALL and time  0.1000000E+01

         1  5.000000E+03  3.040078E-01  5.925907E-01
         2  5.000000E+03  1.000000E-03  0.000000E+00
         3  5.000000E+03  0.000000E+00  0.000000E+00
         4  5.000000E+03  5.924139E-01  5.925907E-01
         5  5.000000E+03  4.292533E-01  5.925907E-01
         6  5.000000E+03  0.000000E+00  0.000000E+00
         7  5.000000E+03  3.815135E-01  5.925907E-01
         8  5.000000E+03  0.000000E+00  0.000000E+00
         9  5.000000E+03  3.516601E-01  5.925907E-01
        10  5.000000E+03  0.000000E+00  0.000000E+00
        11  5.000000E+03  3.317246E-01  5.925907E-01
        12  5.000000E+03  0.000000E+00  0.000000E+00
        13  5.000000E+03  3.186965E-01  5.925907E-01
        14  5.000000E+03  0.000000E+00  0.000000E+00
        15  5.000000E+03  3.108082E-01  5.925907E-01
        16  5.000000E+03  0.000000E+00  0.000000E+00
        17  5.000000E+03  3.066119E-01  5.925907E-01
        18  5.000000E+03  0.000000E+00  0.000000E+00
        19  5.000000E+03  3.047688E-01  5.925907E-01
        20  5.000000E+03  0.000000E+00  0.000000E+00
        21  5.000000E+03  3.041504E-01  5.925907E-01
        22  5.000000E+03  0.000000E+00  0.000000E+00
        23  5.000000E+03  0.000000E+00  0.000000E+00
        24  5.000000E+03  0.000000E+00  0.000000E+00
        26  5.000000E+03  8.886208E-01  0.000000E+00
        29  5.000000E+03  0.000000E+00  0.000000E+00
        31  5.000000E+03  0.000000E+00  0.000000E+00

 mass flows for set NALL and time  0.1000000E+01

         1  5.000000E+03
         2  5.000000E+03
         3  5.000000E+03
         4  5.000000E+03
         5  5.000000E+03
         6  5.000000E+03
         7  5.000000E+03
         8  5.000000E+03
         9  5.000000E+03
        10  5.000000E+03
        11  5.000000E+03
        12  5.000000E+03
        13  5.000000E+03
        14  5.000000E+03
        15  5.000000E+03
        16  5.000000E+03
        17  5.000000E+03
        18  5.000000E+03
        19  5.000000E+03
        20  5.000000E+03
        21  5.000000E+03
        22  5.000000E+03
        23  5.000000E+03
        24  5.000000E+03
        26  5.000000E+03
        29  5.000000E+03
        31  5.000000E+03

 network pressures (total pressure for gases, static pressure for liquids and fluid depth for channels) for set NALL and time  0.1000000E+01

         1  3.040078E-01
         2  1.000000E-03
         3  0.000000E+00
         4  5.924139E-01
         5  4.292533E-01
         6  0.000000E+00
         7  3.815135E-01
         8  0.000000E+00
         9  3.516601E-01
        10  0.000000E+00
        11  3.317246E-01
        12  0.000000E+00
        13  3.186965E-01
        14  0.000000E+00
        15  3.108082E-01
        16  0.000000E+00
        17  3.066119E-01
        18  0.000000E+00
        19  3.047688E-01
        20  0.000000E+00
        21  3.041504E-01
        22  0.000000E+00
        23  0.000000E+00
        24  0.000000E+00
        26  8.886208E-01
        29  0.000000E+00
        31  0.000000E+00
