
                        S T E P       1


                                INCREMENT     1


 displacements (vx,vy,vz) for set NALL and time  0.1000000E+01

         1  6.000000E+04  0.000000E+00  0.000000E+00
         2  6.000000E+04  3.666972E+00  0.000000E+00
         4  6.000000E+04  0.000000E+00  0.000000E+00
         6  6.000000E+04  7.999900E-01  1.542457E+00
         7  6.000000E+04  0.000000E+00  0.000000E+00
         8  6.000000E+04  2.699966E+00  1.542457E+00
         9  6.000000E+04  0.000000E+00  0.000000E+00
        10  6.000000E+04  2.700000E+00  0.000000E+00
        11  6.000000E+04  0.000000E+00  0.000000E+00

 mass flows for set NALL and time  0.1000000E+01

         1  6.000000E+04
         2  6.000000E+04
         4  6.000000E+04
         6  6.000000E+04
         7  6.000000E+04
         8  6.000000E+04
         9  6.000000E+04
        10  6.000000E+04
        11  6.000000E+04

 network pressures (total pressure for gases, static pressure for liquids and fluid depth for channels) for set NALL and time  0.1000000E+01

         1  0.000000E+00
         2  3.666972E+00
         4  0.000000E+00
         6  7.999900E-01
         7  0.000000E+00
         8  2.699966E+00
         9  0.000000E+00
        10  2.700000E+00
        11  0.000000E+00
