
                        S T E P       1


                                INCREMENT     1


 displacements (vx,vy,vz) for set NALL and time  0.1000000E+01

         1  6.000000E+04  0.000000E+00  0.000000E+00
         2  6.000000E+04  3.666972E+00  0.000000E+00
         4  6.000000E+04  0.000000E+00  0.000000E+00
         6  6.000000E+04  7.999900E-01  1.542457E+00
         7  6.000000E+04  0.000000E+00  0.000000E+00
         8  6.000000E+04  8.317220E-01  1.542457E+00
         9  6.000000E+04  0.000000E+00  0.000000E+00
        10  6.000000E+04  1.600000E+00  0.000000E+00
        11  6.000000E+04  0.000000E+00  0.000000E+00
        21  0.000000E+00  0.000000E+00  0.000000E+00
        22  0.000000E+00  0.000000E+00  0.000000E+00
        24  0.000000E+00  0.000000E+00  0.000000E+00
        23  0.000000E+00  0.000000E+00  0.000000E+00
        25  0.000000E+00  0.000000E+00  0.000000E+00
        26  0.000000E+00  0.000000E+00  0.000000E+00
        28  0.000000E+00  0.000000E+00  0.000000E+00
        27  0.000000E+00  0.000000E+00  0.000000E+00
        29  0.000000E+00  0.000000E+00  0.000000E+00
        30  0.000000E+00  0.000000E+00  0.000000E+00
        31  0.000000E+00  0.000000E+00  0.000000E+00
        32  0.000000E+00  0.000000E+00  0.000000E+00

 mass flows for set NALL and time  0.1000000E+01

         1  6.000000E+04
         2  6.000000E+04
         4  6.000000E+04
         6  6.000000E+04
         7  6.000000E+04
         8  6.000000E+04
         9  6.000000E+04
        10  6.000000E+04
        11  6.000000E+04
        21  0.000000E+00
        22  0.000000E+00
        24  0.000000E+00
        23  0.000000E+00
        25  0.000000E+00
        26  0.000000E+00
        28  0.000000E+00
        27  0.000000E+00
        29  0.000000E+00
        30  0.000000E+00
        31  0.000000E+00
        32  0.000000E+00

 network pressures (total pressure for gases, static pressure for liquids and fluid depth for channels) for set NALL and time  0.1000000E+01

         1  0.000000E+00
         2  3.666972E+00
         4  0.000000E+00
         6  7.999900E-01
         7  0.000000E+00
         8  8.317220E-01
         9  0.000000E+00
        10  1.600000E+00
        11  0.000000E+00
        21  0.000000E+00
        22  0.000000E+00
        24  0.000000E+00
        23  0.000000E+00
        25  0.000000E+00
        26  0.000000E+00
        28  0.000000E+00
        27  0.000000E+00
        29  0.000000E+00
        30  0.000000E+00
        31  0.000000E+00
        32  0.000000E+00

 temperatures for set NALL and time  0.1000000E+01

         1 -1.000000E+00
         2  1.000000E+04
         4 -1.000000E+00
         6  9.542395E+03
         7 -1.000000E+00
         8  9.153646E+03
         9 -1.000000E+00
        10  9.153646E+03
        11  0.000000E+00
        21  2.930000E+02
        22  2.930000E+02
        24  2.930000E+02
        23  2.930000E+02
        25  2.930000E+02
        26  2.930000E+02
        28  2.930000E+02
        27  2.930000E+02
        29  2.930000E+02
        30  2.930000E+02
        31  2.930000E+02
        32  2.930000E+02
