    1C
    1UUSER                                                              
    1UDATE              16.may.2023                                     
    1UTIME              12:44:06                                        
    1UHOST                                                              
    1UPGM               CalculiX                                        
    1UVERSION           Version DEVELOPMENT                             
    1UCOMPILETIME       Tue May 16 12:24:06 CEST 2023                    
    1UDIR                                                               
    1UDBN                                                               
    1UMAT    1EL                                                        
    1UMAT    2SI1                                                       
    2C                            16                                     1
 -1         1 1.00000E+00 1.00000E+00-1.49012E-08
 -1         2 1.00000E+00 0.00000E+00-1.49012E-08
 -1         3 1.00000E+00 0.00000E+00 1.00000E+00
 -1         4 1.00000E+00 1.00000E+00 1.00000E+00
 -1         5-7.45058E-09 1.00000E+00-1.49012E-08
 -1         6-7.45058E-09 0.00000E+00-1.49012E-08
 -1         7-7.45058E-09 0.00000E+00 1.00000E+00
 -1         8-7.45058E-09 1.00000E+00 1.00000E+00
 -1         9 5.00000E-01 6.41421E-01 1.00000E+00
 -1        10 6.41421E-01 5.00000E-01 1.00000E+00
 -1        11 6.41421E-01 5.00000E-01 1.20000E+00
 -1        12 5.00000E-01 6.41421E-01 1.20000E+00
 -1        13 3.58579E-01 5.00000E-01 1.00000E+00
 -1        14 5.00000E-01 3.58579E-01 1.00000E+00
 -1        15 5.00000E-01 3.58579E-01 1.20000E+00
 -1        16 3.58579E-01 5.00000E-01 1.20000E+00
 -3
    3C                             2                                     1
 -1         1    1    0    1
 -2         1         2         3         4         5         6         7         8
 -1         2    1    0    1
 -2         9        10        11        12        13        14        15        16
 -3
    1PSTEP                         1           1           1          
  100CL  101 1.00000E-20          16                     0    1           1
 -4  DISP        4    1
 -5  D1          1    2    1    0
 -5  D2          1    2    2    0
 -5  D3          1    2    3    0
 -5  ALL         1    2    0    0    1ALL
 -1         1 0.00000E+00 0.00000E+00 0.00000E+00
 -1         2 0.00000E+00 0.00000E+00 0.00000E+00
 -1         3 2.88100E-13 4.57429E-18-1.90482E-05
 -1         4 2.88100E-13 4.56800E-18-1.90482E-05
 -1         5 0.00000E+00 0.00000E+00 0.00000E+00
 -1         6 0.00000E+00 0.00000E+00 0.00000E+00
 -1         7 2.88100E-13 4.65780E-18-1.90482E-05
 -1         8 2.88100E-13 4.65151E-18-1.90482E-05
 -1         9 1.67428E-14 4.98028E-17-2.90482E-05
 -1        10 1.67480E-14 5.50665E-17-2.90482E-05
 -1        11 0.00000E+00 0.00000E+00-1.24355E-04
 -1        12 0.00000E+00 0.00000E+00-1.24355E-04
 -1        13 1.67375E-14 5.50431E-17-2.90482E-05
 -1        14 1.67428E-14 6.03102E-17-2.90482E-05
 -1        15 0.00000E+00 0.00000E+00-1.24355E-04
 -1        16 0.00000E+00 0.00000E+00-1.24355E-04
 -3
    1PSTEP                         2           1           1          
  100CL  101 1.00000E-20          16                     0    1           1
 -4  STRESS      6    1
 -5  SXX         1    4    1    1
 -5  SYY         1    4    2    2
 -5  SZZ         1    4    3    3
 -5  SXY         1    4    1    2
 -5  SYZ         1    4    2    3
 -5  SZX         1    4    3    1
 -1         1-1.12883E-20 2.22931E-20-3.99984E+00 2.96325E-19 4.79569E-13 3.02492E-08
 -1         2-1.13708E-20 2.22931E-20-3.99984E+00 2.96325E-19 4.80230E-13 3.02492E-08
 -1         3 1.32427E-15-1.32065E-15-3.99984E+00-1.75480E-14-5.75784E-15-3.24200E-08
 -1         4 1.34480E-15-1.32065E-15-3.99984E+00-1.75480E-14-6.41814E-15-3.24199E-08
 -1         5-1.12902E-20 2.22931E-20-3.99984E+00 2.96288E-19 4.88506E-13 3.02492E-08
 -1         6-1.13639E-20 2.22931E-20-3.99984E+00 2.96288E-19 4.89167E-13 3.02492E-08
 -1         7 1.32427E-15-1.32063E-15-3.99984E+00-1.75583E-14-1.55437E-13-3.24200E-08
 -1         8 1.34480E-15-1.32063E-15-3.99984E+00-1.75583E-14-1.56098E-13-3.24199E-08
 -1         9 7.80572E-12-7.80241E-12-9.99965E+01 9.89207E-17-4.64307E-11-5.42873E-08
 -1        10 7.80550E-12-7.80496E-12-9.99965E+01-1.28871E-15 1.00618E-11-5.42308E-08
 -1        11-1.31769E-16 1.31752E-16-9.99965E+01-4.36402E-21 1.59371E-14 6.66948E-12
 -1        12-1.31769E-16 1.31761E-16-9.99965E+01 5.49195E-22 1.13300E-11 1.80115E-11
 -1        13 7.80594E-12-7.80496E-12-9.99965E+01 1.26900E-15 1.00680E-11-5.43437E-08
 -1        14 7.80572E-12-7.80752E-12-9.99965E+01-1.18637E-16 6.65259E-11-5.42873E-08
 -1        15-1.31769E-16 1.31743E-16-9.99965E+01-2.07967E-22-1.12617E-11 1.80144E-11
 -1        16-1.31768E-16 1.31752E-16-9.99965E+01 4.70535E-21 7.79931E-15 2.92819E-11
 -3
    1PSTEP                         3           5           2          
  100CL  102 4.77017E-08          16                     1    2           1
 -4  DISP        4    1
 -5  D1          1    2    1    0
 -5  D2          1    2    2    0
 -5  D3          1    2    3    0
 -5  ALL         1    2    0    0    1ALL
 -1         1 0.00000E+00 0.00000E+00 0.00000E+00
 -1         2 0.00000E+00 0.00000E+00 0.00000E+00
 -1         3 2.88158E-13 4.56346E-18-1.92048E-05
 -1         4 2.88158E-13 4.55642E-18-1.92048E-05
 -1         5 0.00000E+00 0.00000E+00 0.00000E+00
 -1         6 0.00000E+00 0.00000E+00 0.00000E+00
 -1         7 2.88158E-13 4.64691E-18-1.92048E-05
 -1         8 2.88158E-13 4.63988E-18-1.92048E-05
 -1         9 6.38606E-15 4.12814E-17-3.86558E-05
 -1        10 6.39176E-15 4.69791E-17-3.86558E-05
 -1        11 0.00000E+00 0.00000E+00-2.41140E-04
 -1        12 0.00000E+00 0.00000E+00-2.41140E-04
 -1        13 6.38038E-15 4.69597E-17-3.86558E-05
 -1        14 6.38608E-15 5.26566E-17-3.86558E-05
 -1        15 0.00000E+00 0.00000E+00-2.41140E-04
 -1        16 0.00000E+00 0.00000E+00-2.41140E-04
 -3
    1PSTEP                         4           5           2          
  100CL  102 4.77017E-08          16                     1    2           1
 -4  STRESS      6    1
 -5  SXX         1    4    1    1
 -5  SYY         1    4    2    2
 -5  SZZ         1    4    3    3
 -5  SXY         1    4    1    2
 -5  SYZ         1    4    2    3
 -5  SZX         1    4    3    1
 -1         1-1.40421E-20 2.49318E-20-4.03273E+00 2.96144E-19 4.78422E-13 3.02553E-08
 -1         2-1.41069E-20 2.49318E-20-4.03273E+00 2.96144E-19 4.79161E-13 3.02553E-08
 -1         3 1.47835E-15-1.47697E-15-4.03273E+00-1.75373E-14 1.21373E-16-3.31711E-08
 -1         4 1.49878E-15-1.47697E-15-4.03273E+00-1.75373E-14-6.17084E-16-3.31710E-08
 -1         5-1.40320E-20 2.49319E-20-4.03273E+00 2.96106E-19 4.87139E-13 3.02553E-08
 -1         6-1.41128E-20 2.49319E-20-4.03273E+00 2.96106E-19 4.87877E-13 3.02553E-08
 -1         7 1.47835E-15-1.47695E-15-4.03273E+00-1.75475E-14-1.43842E-13-3.31711E-08
 -1         8 1.49878E-15-1.47695E-15-4.03273E+00-1.75475E-14-1.44580E-13-3.31710E-08
 -1         9 8.45286E-12-8.45460E-12-2.12277E+02-6.55718E-16-8.50619E-12-5.63919E-08
 -1        10 8.45372E-12-8.45403E-12-2.12277E+02 6.00610E-17 3.61502E-12-5.63798E-08
 -1        11-1.42691E-16 1.42708E-16-2.12277E+02 4.80022E-21 4.09492E-12 3.89494E-09
 -1        12-1.42694E-16 1.42706E-16-2.12277E+02 2.25887E-21 1.60639E-11 3.90691E-09
 -1        13 8.45200E-12-8.45403E-12-2.12277E+02-5.09031E-16 3.62569E-12-5.64040E-08
 -1        14 8.45286E-12-8.45346E-12-2.12277E+02 2.06748E-16 1.56976E-11-5.63919E-08
 -1        15-1.42694E-16 1.42710E-16-2.12277E+02 5.32291E-21-7.73117E-12 3.90687E-09
 -1        16-1.42697E-16 1.42708E-16-2.12277E+02 2.78075E-21 4.06147E-12 3.91867E-09
 -3
    1PSTEP                         5          10           2          
  100CL  103 9.54034E-08          16                     1    3           1
 -4  DISP        4    1
 -5  D1          1    2    1    0
 -5  D2          1    2    2    0
 -5  D3          1    2    3    0
 -5  ALL         1    2    0    0    1ALL
 -1         1 0.00000E+00 0.00000E+00 0.00000E+00
 -1         2 0.00000E+00 0.00000E+00 0.00000E+00
 -1         3 2.88548E-13 4.52558E-18-2.18203E-05
 -1         4 2.88548E-13 4.51652E-18-2.18203E-05
 -1         5 0.00000E+00 0.00000E+00 0.00000E+00
 -1         6 0.00000E+00 0.00000E+00 0.00000E+00
 -1         7 2.88548E-13 4.60841E-18-2.18203E-05
 -1         8 2.88548E-13 4.59935E-18-2.18203E-05
 -1         9-6.42555E-15 1.43772E-17-5.03308E-05
 -1        10-6.43132E-15 8.61497E-18-5.03308E-05
 -1        11 0.00000E+00 0.00000E+00-3.34923E-04
 -1        12 0.00000E+00 0.00000E+00-3.34923E-04
 -1        13-6.41978E-15 8.60087E-18-5.03308E-05
 -1        14-6.42555E-15 2.83383E-18-5.03308E-05
 -1        15 0.00000E+00 0.00000E+00-3.34923E-04
 -1        16 0.00000E+00 0.00000E+00-3.34923E-04
 -3
    1PSTEP                         6          10           2          
  100CL  103 9.54034E-08          16                     1    3           1
 -4  STRESS      6    1
 -5  SXX         1    4    1    1
 -5  SYY         1    4    2    2
 -5  SZZ         1    4    3    3
 -5  SXY         1    4    1    2
 -5  SYZ         1    4    2    3
 -5  SZX         1    4    3    1
 -1         1-2.24666E-20 3.21158E-20-4.58193E+00 2.93949E-19 4.74229E-13 3.02961E-08
 -1         2-2.25468E-20 3.21158E-20-4.58193E+00 2.93949E-19 4.75180E-13 3.02961E-08
 -1         3 1.89638E-15-1.90255E-15-4.58193E+00-1.74075E-14 1.27101E-14-3.98607E-08
 -1         4 1.91631E-15-1.90255E-15-4.58193E+00-1.74075E-14 1.17589E-14-3.98606E-08
 -1         5-2.24727E-20 3.21159E-20-4.58193E+00 2.93913E-19 4.82811E-13 3.02961E-08
 -1         6-2.25398E-20 3.21159E-20-4.58193E+00 2.93913E-19 4.83762E-13 3.02961E-08
 -1         7 1.89638E-15-1.90253E-15-4.58193E+00-1.74174E-14-1.16847E-13-3.98607E-08
 -1         8 1.91631E-15-1.90253E-15-4.58193E+00-1.74175E-14-1.17798E-13-3.98606E-08
 -1         9-8.57819E-12 8.57901E-12-2.98172E+02 8.18637E-15 2.46255E-11-5.84157E-08
 -1        10-8.58534E-12 8.58257E-12-2.98172E+02 6.39250E-15 4.45759E-11-5.83957E-08
 -1        11 1.44774E-16-1.44878E-16-2.98172E+02-7.15992E-20 1.22184E-11 5.37675E-11
 -1        12 1.44799E-16-1.44891E-16-2.98172E+02-6.52377E-20 9.03803E-12 5.04856E-11
 -1        13-8.57105E-12 8.58257E-12-2.98172E+02 2.83773E-15 4.45813E-11-5.84356E-08
 -1        14-8.57819E-12 8.58612E-12-2.98172E+02 1.04386E-15 6.45442E-11-5.84157E-08
 -1        15 1.44799E-16-1.44866E-16-2.98172E+02-9.05682E-20 1.54162E-11 5.05080E-11
 -1        16 1.44824E-16-1.44878E-16-2.98172E+02-8.42066E-20 1.21507E-11 4.72947E-11
 -3
    1PSTEP                         7          15           2          
  100CL  104 1.43105E-07          16                     1    4           1
 -4  DISP        4    1
 -5  D1          1    2    1    0
 -5  D2          1    2    2    0
 -5  D3          1    2    3    0
 -5  ALL         1    2    0    0    1ALL
 -1         1 0.00000E+00 0.00000E+00 0.00000E+00
 -1         2 0.00000E+00 0.00000E+00 0.00000E+00
 -1         3 2.91237E-13 4.37486E-18-2.83148E-05
 -1         4 2.91237E-13 4.36745E-18-2.83148E-05
 -1         5 0.00000E+00 0.00000E+00 0.00000E+00
 -1         6 0.00000E+00 0.00000E+00 0.00000E+00
 -1         7 2.91237E-13 4.45522E-18-2.83148E-05
 -1         8 2.91237E-13 4.44782E-18-2.83148E-05
 -1         9-2.11545E-14-4.34172E-17-4.28694E-05
 -1        10-2.11462E-14-3.52077E-17-4.28694E-05
 -1        11 0.00000E+00 0.00000E+00-2.07282E-04
 -1        12 0.00000E+00 0.00000E+00-2.07282E-04
 -1        13-2.11627E-14-3.52094E-17-4.28694E-05
 -1        14-2.11545E-14-2.69933E-17-4.28694E-05
 -1        15 0.00000E+00 0.00000E+00-2.07282E-04
 -1        16 0.00000E+00 0.00000E+00-2.07282E-04
 -3
    1PSTEP                         8          15           2          
  100CL  104 1.43105E-07          16                     1    4           1
 -4  STRESS      6    1
 -5  SXX         1    4    1    1
 -5  SYY         1    4    2    2
 -5  SZZ         1    4    3    3
 -5  SXY         1    4    1    2
 -5  SYZ         1    4    2    3
 -5  SZX         1    4    3    1
 -1         1-1.99527E-20 2.62487E-20-5.94561E+00 2.85252E-19 4.58513E-13 3.05784E-08
 -1         2-2.00156E-20 2.62487E-20-5.94561E+00 2.85252E-19 4.59291E-13 3.05784E-08
 -1         3 1.53942E-15-1.55498E-15-5.94561E+00-1.68929E-14 4.42674E-14-5.51182E-08
 -1         4 1.55722E-15-1.55498E-15-5.94561E+00-1.68929E-14 4.34900E-14-5.51181E-08
 -1         5-1.99469E-20 2.62488E-20-5.94561E+00 2.85219E-19 4.67067E-13 3.05784E-08
 -1         6-2.00065E-20 2.62488E-20-5.94561E+00 2.85219E-19 4.67844E-13 3.05784E-08
 -1         7 1.53942E-15-1.55497E-15-5.94561E+00-1.69018E-14-6.21715E-14-5.51182E-08
 -1         8 1.55722E-15-1.55497E-15-5.94561E+00-1.69018E-14-6.29490E-14-5.51181E-08
 -1         9 1.22032E-11-1.21990E-11-1.72414E+02-1.58074E-14 3.06360E-11-6.77497E-08
 -1        10 1.22310E-11-1.22039E-11-1.72414E+02-4.36426E-15 2.13299E-11-6.77590E-08
 -1        11-2.05904E-16 2.06008E-16-1.72414E+02 2.39311E-20-1.40864E-12-2.93086E-09
 -1        12-2.06002E-16 2.06025E-16-1.72414E+02-1.66533E-20 2.98534E-12-2.92639E-09
 -1        13 1.21755E-11-1.22039E-11-1.72414E+02 5.05932E-16 2.13140E-11-6.77404E-08
 -1        14 1.22032E-11-1.22088E-11-1.72414E+02 1.19491E-14 1.20220E-11-6.77497E-08
 -1        15-2.06002E-16 2.05991E-16-1.72414E+02 8.17885E-20-5.85221E-12-2.92644E-09
 -1        16-2.06101E-16 2.06008E-16-1.72414E+02 4.12071E-20-1.44416E-12-2.92209E-09
 -3
    1PSTEP                         9          20           2          
  100CL  105 1.90807E-07          16                     1    5           1
 -4  DISP        4    1
 -5  D1          1    2    1    0
 -5  D2          1    2    2    0
 -5  D3          1    2    3    0
 -5  ALL         1    2    0    0    1ALL
 -1         1 0.00000E+00 0.00000E+00 0.00000E+00
 -1         2 0.00000E+00 0.00000E+00 0.00000E+00
 -1         3 3.00343E-13 4.00576E-18-3.53769E-05
 -1         4 3.00343E-13 3.99737E-18-3.53769E-05
 -1         5 0.00000E+00 0.00000E+00 0.00000E+00
 -1         6 0.00000E+00 0.00000E+00 0.00000E+00
 -1         7 3.00343E-13 4.08002E-18-3.53769E-05
 -1         8 3.00343E-13 4.07163E-18-3.53769E-05
 -1         9-4.45286E-14-8.68850E-17-4.32913E-05
 -1        10-4.45120E-14-7.02845E-17-4.32913E-05
 -1        11 0.00000E+00 0.00000E+00-1.50282E-04
 -1        12 0.00000E+00 0.00000E+00-1.50282E-04
 -1        13-4.45452E-14-7.02867E-17-4.32913E-05
 -1        14-4.45286E-14-5.36761E-17-4.32913E-05
 -1        15 0.00000E+00 0.00000E+00-1.50282E-04
 -1        16 0.00000E+00 0.00000E+00-1.50282E-04
 -3
    1PSTEP                        10          20           2          
  100CL  105 1.90807E-07          16                     1    5           1
 -4  STRESS      6    1
 -5  SXX         1    4    1    1
 -5  SYY         1    4    2    2
 -5  SZZ         1    4    3    3
 -5  SXY         1    4    1    2
 -5  SYZ         1    4    2    3
 -5  SZX         1    4    3    1
 -1         1-2.72524E-20 2.97397E-20-7.42846E+00 2.63746E-19 4.19774E-13 3.15343E-08
 -1         2-2.73196E-20 2.97397E-20-7.42846E+00 2.63746E-19 4.20655E-13 3.15343E-08
 -1         3 1.73600E-15-1.76178E-15-7.42846E+00-1.56200E-14 5.33316E-14-7.13619E-08
 -1         4 1.75043E-15-1.76178E-15-7.42846E+00-1.56200E-14 5.24508E-14-7.13618E-08
 -1         5-2.72665E-20 2.97397E-20-7.42846E+00 2.63720E-19 4.27324E-13 3.15343E-08
 -1         6-2.73148E-20 2.97397E-20-7.42846E+00 2.63720E-19 4.28205E-13 3.15343E-08
 -1         7 1.73600E-15-1.76177E-15-7.42846E+00-1.56272E-14-2.39616E-14-7.13619E-08
 -1         8 1.75043E-15-1.76177E-15-7.42846E+00-1.56272E-14-2.48424E-14-7.13618E-08
 -1         9 2.46641E-11-2.46615E-11-1.12246E+02-1.48551E-14-1.29910E-10-7.42002E-08
 -1        10 2.46973E-11-2.46690E-11-1.12246E+02-1.98442E-15-1.37852E-11-7.40841E-08
 -1        11-4.16229E-16 4.16425E-16-1.12246E+02-4.29533E-20-1.38577E-11 4.33380E-09
 -1        12-4.16347E-16 4.16452E-16-1.12246E+02-8.86144E-20 5.75855E-12 4.35339E-09
 -1        13 2.46309E-11-2.46690E-11-1.12246E+02 5.50114E-15-1.37805E-11-7.43163E-08
 -1        14 2.46641E-11-2.46765E-11-1.12246E+02 1.83718E-14 1.02351E-10-7.42002E-08
 -1        15-4.16347E-16 4.16399E-16-1.12246E+02 2.92581E-20-3.35046E-11 4.35339E-09
 -1        16-4.16465E-16 4.16425E-16-1.12246E+02-1.63987E-20-1.38816E-11 4.37299E-09
 -3
    1PSTEP                        11          25           2          
  100CL  106 2.38509E-07          16                     1    6           1
 -4  DISP        4    1
 -5  D1          1    2    1    0
 -5  D2          1    2    2    0
 -5  D3          1    2    3    0
 -5  ALL         1    2    0    0    1ALL
 -1         1 0.00000E+00 0.00000E+00 0.00000E+00
 -1         2 0.00000E+00 0.00000E+00 0.00000E+00
 -1         3 3.20113E-13 3.34929E-18-4.09493E-05
 -1         4 3.20113E-13 3.33209E-18-4.09493E-05
 -1         5 0.00000E+00 0.00000E+00 0.00000E+00
 -1         6 0.00000E+00 0.00000E+00 0.00000E+00
 -1         7 3.20113E-13 3.41205E-18-4.09493E-05
 -1         8 3.20113E-13 3.39485E-18-4.09493E-05
 -1         9-6.65381E-14-6.92598E-17-6.40976E-05
 -1        10-6.65363E-14-6.75153E-17-6.40976E-05
 -1        11 0.00000E+00 0.00000E+00-3.03259E-04
 -1        12 0.00000E+00 0.00000E+00-3.03259E-04
 -1        13-6.65398E-14-6.75202E-17-6.40976E-05
 -1        14-6.65381E-14-6.57785E-17-6.40976E-05
 -1        15 0.00000E+00 0.00000E+00-3.03259E-04
 -1        16 0.00000E+00 0.00000E+00-3.03259E-04
 -3
    1PSTEP                        12          25           2          
  100CL  106 2.38509E-07          16                     1    6           1
 -4  STRESS      6    1
 -5  SXX         1    4    1    1
 -5  SYY         1    4    2    2
 -5  SZZ         1    4    3    3
 -5  SXY         1    4    1    2
 -5  SYZ         1    4    2    3
 -5  SZX         1    4    3    1
 -1         1-6.06944E-20 6.09612E-20-8.59848E+00 2.23053E-19 3.49673E-13 3.36098E-08
 -1         2-6.07424E-20 6.09612E-20-8.59848E+00 2.23053E-19 3.51479E-13 3.36098E-08
 -1         3 3.57306E-15-3.61134E-15-8.59848E+00-1.32103E-14-7.94876E-15-8.36556E-08
 -1         4 3.58425E-15-3.61134E-15-8.59848E+00-1.32103E-14-9.75424E-15-8.36556E-08
 -1         5-6.06963E-20 6.09612E-20-8.59848E+00 2.23033E-19 3.56515E-13 3.36098E-08
 -1         6-6.07356E-20 6.09612E-20-8.59848E+00 2.23033E-19 3.58321E-13 3.36098E-08
 -1         7 3.57306E-15-3.61134E-15-8.59848E+00-1.32159E-14-4.98648E-14-8.36556E-08
 -1         8 3.58425E-15-3.61134E-15-8.59848E+00-1.32159E-14-5.16703E-14-8.36556E-08
 -1         9 2.60013E-12-2.58990E-12-2.50659E+02 1.12519E-14-2.61202E-10-7.79078E-08
 -1        10 2.57947E-12-2.58781E-12-2.50659E+02 1.97170E-15-2.57430E-11-7.76724E-08
 -1        11-4.39629E-17 4.36835E-17-2.50659E+02-1.19116E-20-1.19069E-11 6.04004E-10
 -1        12-4.38897E-17 4.36761E-17-2.50659E+02 2.09827E-20 1.32361E-11 6.29091E-10
 -1        13 2.62078E-12-2.58781E-12-2.50659E+02-1.20565E-16-2.57402E-11-7.81433E-08
 -1        14 2.60013E-12-2.58571E-12-2.50659E+02-9.40078E-15 2.09708E-10-7.79078E-08
 -1        15-4.38897E-17 4.36909E-17-2.50659E+02-5.22202E-20-3.70197E-11 6.29117E-10
 -1        16-4.38165E-17 4.36835E-17-2.50659E+02-1.93247E-20-1.19277E-11 6.54275E-10
 -3
    1PSTEP                        13          30           2          
  100CL  107 2.86210E-07          16                     1    7           1
 -4  DISP        4    1
 -5  D1          1    2    1    0
 -5  D2          1    2    2    0
 -5  D3          1    2    3    0
 -5  ALL         1    2    0    0    1ALL
 -1         1 0.00000E+00 0.00000E+00 0.00000E+00
 -1         2 0.00000E+00 0.00000E+00 0.00000E+00
 -1         3 3.53539E-13 2.44313E-18-4.71425E-05
 -1         4 3.53539E-13 2.41721E-18-4.71425E-05
 -1         5 0.00000E+00 0.00000E+00 0.00000E+00
 -1         6 0.00000E+00 0.00000E+00 0.00000E+00
 -1         7 3.53539E-13 2.48758E-18-4.71425E-05
 -1         8 3.53539E-13 2.46165E-18-4.71425E-05
 -1         9-8.32327E-14-1.18647E-17-7.41187E-05
 -1        10-8.32463E-14-2.54564E-17-7.41187E-05
 -1        11 0.00000E+00 0.00000E+00-3.45053E-04
 -1        12 0.00000E+00 0.00000E+00-3.45053E-04
 -1        13-8.32191E-14-2.54712E-17-7.41187E-05
 -1        14-8.32327E-14-3.90601E-17-7.41187E-05
 -1        15 0.00000E+00 0.00000E+00-3.45053E-04
 -1        16 0.00000E+00 0.00000E+00-3.45053E-04
 -3
    1PSTEP                        14          30           2          
  100CL  107 2.86210E-07          16                     1    7           1
 -4  STRESS      6    1
 -5  SXX         1    4    1    1
 -5  SYY         1    4    2    2
 -5  SZZ         1    4    3    3
 -5  SXY         1    4    1    2
 -5  SYZ         1    4    2    3
 -5  SZX         1    4    3    1
 -1         1-9.30151E-20 9.18989E-20-9.89883E+00 1.58250E-19 2.53800E-13 3.71189E-08
 -1         2-9.30136E-20 9.18989E-20-9.89883E+00 1.58250E-19 2.56522E-13 3.71189E-08
 -1         3 5.39841E-15-5.44408E-15-9.89883E+00-9.37513E-15-1.27505E-13-9.60443E-08
 -1         4 5.39694E-15-5.44408E-15-9.89883E+00-9.37512E-15-1.30226E-13-9.60443E-08
 -1         5-9.30151E-20 9.18989E-20-9.89883E+00 1.58253E-19 2.58302E-13 3.71189E-08
 -1         6-9.30136E-20 9.18989E-20-9.89883E+00 1.58253E-19 2.61023E-13 3.71189E-08
 -1         7 5.39841E-15-5.44408E-15-9.89883E+00-9.37439E-15-1.30607E-13-9.60443E-08
 -1         8 5.39694E-15-5.44408E-15-9.89883E+00-9.37439E-15-1.33329E-13-9.60443E-08
 -1         9-2.02197E-11 2.02207E-11-2.83892E+02 1.20354E-14-3.30642E-10-8.53085E-08
 -1        10-2.02355E-11 2.02185E-11-2.83892E+02 3.06399E-15-1.17417E-11-8.49897E-08
 -1        11 3.41272E-16-3.41299E-16-2.83892E+02-7.36440E-20-1.46833E-12-7.02573E-09
 -1        12 3.41328E-16-3.41292E-16-2.83892E+02-4.18579E-20 6.61940E-12-7.01780E-09
 -1        13-2.02039E-11 2.02185E-11-2.83892E+02 5.20977E-15-1.17492E-11-8.56274E-08
 -1        14-2.02197E-11 2.02164E-11-2.83892E+02-3.76166E-15 3.07115E-10-8.53085E-08
 -1        15 3.41328E-16-3.41307E-16-2.83892E+02-9.78099E-20-9.56547E-12-7.01779E-09
 -1        16 3.41384E-16-3.41299E-16-2.83892E+02-6.60208E-20-1.48298E-12-7.00971E-09
 -3
    1PSTEP                        15          35           2          
  100CL  108 3.33912E-07          16                     1    8           1
 -4  DISP        4    1
 -5  D1          1    2    1    0
 -5  D2          1    2    2    0
 -5  D3          1    2    3    0
 -5  ALL         1    2    0    0    1ALL
 -1         1 0.00000E+00 0.00000E+00 0.00000E+00
 -1         2 0.00000E+00 0.00000E+00 0.00000E+00
 -1         3 4.03083E-13 1.44003E-18-5.38819E-05
 -1         4 4.03083E-13 1.41346E-18-5.38819E-05
 -1         5 0.00000E+00 0.00000E+00 0.00000E+00
 -1         6 0.00000E+00 0.00000E+00 0.00000E+00
 -1         7 4.03083E-13 1.45884E-18-5.38819E-05
 -1         8 4.03083E-13 1.43227E-18-5.38819E-05
 -1         9-9.71514E-14 4.83484E-17-6.53139E-05
 -1        10-9.71530E-14 4.67042E-17-6.53139E-05
 -1        11 0.00000E+00 0.00000E+00-1.98122E-04
 -1        12 0.00000E+00 0.00000E+00-1.98122E-04
 -1        13-9.71497E-14 4.66818E-17-6.53139E-05
 -1        14-9.71513E-14 4.50497E-17-6.53139E-05
 -1        15 0.00000E+00 0.00000E+00-1.98122E-04
 -1        16 0.00000E+00 0.00000E+00-1.98122E-04
 -3
    1PSTEP                        16          35           2          
  100CL  108 3.33912E-07          16                     1    8           1
 -4  STRESS      6    1
 -5  SXX         1    4    1    1
 -5  SYY         1    4    2    2
 -5  SZZ         1    4    3    3
 -5  SXY         1    4    1    2
 -5  SYZ         1    4    2    3
 -5  SZX         1    4    3    1
 -1         1-9.50115E-20 9.41927E-20-1.13138E+01 6.74561E-20 1.48419E-13 4.23200E-08
 -1         2-9.49373E-20 9.41927E-20-1.13138E+01 6.74561E-20 1.51209E-13 4.23200E-08
 -1         3 5.52632E-15-5.57996E-15-1.13138E+01-4.00139E-15-2.39431E-13-1.08184E-07
 -1         4 5.50925E-15-5.57996E-15-1.13138E+01-4.00138E-15-2.42221E-13-1.08184E-07
 -1         5-9.50163E-20 9.41926E-20-1.13138E+01 6.74906E-20 1.49775E-13 4.23200E-08
 -1         6-9.49509E-20 9.41926E-20-1.13138E+01 6.74905E-20 1.52564E-13 4.23200E-08
 -1         7 5.52632E-15-5.57997E-15-1.13138E+01-3.99286E-15-2.05260E-13-1.08184E-07
 -1         8 5.50925E-15-5.57997E-15-1.13138E+01-3.99285E-15-2.08049E-13-1.08184E-07
 -1         9-2.45804E-12 2.45961E-12-1.39304E+02-5.94365E-15-4.35631E-10-9.52222E-08
 -1        10-2.44733E-12 2.45074E-12-1.39304E+02-5.02525E-15-6.17702E-11-9.48483E-08
 -1        11 4.15413E-17-4.13697E-17-1.39304E+02-5.83284E-21-1.52773E-12 2.45717E-10
 -1        12 4.15032E-17-4.13382E-17-1.39304E+02-9.13395E-21-1.32071E-11 2.34152E-10
 -1        13-2.46875E-12 2.45074E-12-1.39304E+02 3.84808E-15-6.17493E-11-9.55960E-08
 -1        14-2.45804E-12 2.44186E-12-1.39304E+02 4.76648E-15 3.12107E-10-9.52222E-08
 -1        15 4.15032E-17-4.14012E-17-1.39304E+02 2.89498E-20 1.00445E-11 2.34172E-10
 -1        16 4.14651E-17-4.13697E-17-1.39304E+02 2.56518E-20-1.55862E-12 2.22489E-10
 -3
    1PSTEP                        17          40           2          
  100CL  109 3.81614E-07          16                     1    9           1
 -4  DISP        4    1
 -5  D1          1    2    1    0
 -5  D2          1    2    2    0
 -5  D3          1    2    3    0
 -5  ALL         1    2    0    0    1ALL
 -1         1 0.00000E+00 0.00000E+00 0.00000E+00
 -1         2 0.00000E+00 0.00000E+00 0.00000E+00
 -1         3 4.70417E-13 5.50669E-19-5.74589E-05
 -1         4 4.70418E-13 5.25451E-19-5.74589E-05
 -1         5 0.00000E+00 0.00000E+00 0.00000E+00
 -1         6 0.00000E+00 0.00000E+00 0.00000E+00
 -1         7 4.70417E-13 5.37452E-19-5.74589E-05
 -1         8 4.70417E-13 5.12234E-19-5.74589E-05
 -1         9-9.64510E-14 6.34779E-17-6.87185E-05
 -1        10-9.64507E-14 6.37879E-17-6.87185E-05
 -1        11 0.00000E+00 0.00000E+00-1.96961E-04
 -1        12 0.00000E+00 0.00000E+00-1.96961E-04
 -1        13-9.64513E-14 6.37608E-17-6.87185E-05
 -1        14-9.64510E-14 6.40680E-17-6.87185E-05
 -1        15 0.00000E+00 0.00000E+00-1.96961E-04
 -1        16 0.00000E+00 0.00000E+00-1.96961E-04
 -3
    1PSTEP                        18          40           2          
  100CL  109 3.81614E-07          16                     1    9           1
 -4  STRESS      6    1
 -5  SXX         1    4    1    1
 -5  SYY         1    4    2    2
 -5  SZZ         1    4    3    3
 -5  SXY         1    4    1    2
 -5  SYZ         1    4    2    3
 -5  SZX         1    4    3    1
 -1         1-8.33130E-20 8.93984E-20-1.20648E+01-4.59963E-20 5.51725E-14 4.93889E-08
 -1         2-8.32210E-20 8.93984E-20-1.20648E+01-4.59963E-20 5.78201E-14 4.93889E-08
 -1         3 5.23865E-15-5.29594E-15-1.20648E+01 2.71711E-15-3.03668E-13-1.12352E-07
 -1         4 5.21283E-15-5.29594E-15-1.20648E+01 2.71712E-15-3.06315E-13-1.12352E-07
 -1         5-8.33111E-20 8.93983E-20-1.20648E+01-4.59520E-20 5.36659E-14 4.93889E-08
 -1         6-8.32279E-20 8.93983E-20-1.20648E+01-4.59520E-20 5.63134E-14 4.93889E-08
 -1         7 5.23865E-15-5.29596E-15-1.20648E+01 2.73002E-15-2.39009E-13-1.12352E-07
 -1         8 5.21283E-15-5.29596E-15-1.20648E+01 2.73003E-15-2.41656E-13-1.12352E-07
 -1         9 4.51092E-13-4.40476E-13-1.34520E+02-6.21786E-15-3.83967E-10-1.05902E-07
 -1        10 4.64392E-13-4.38395E-13-1.34520E+02 1.47277E-15-8.28639E-12-1.05527E-07
 -1        11-7.56100E-18 7.40033E-18-1.34520E+02-3.63618E-21 2.12278E-11 6.17354E-10
 -1        12-7.60826E-18 7.39294E-18-1.34520E+02-3.09625E-20-4.81198E-12 5.91255E-10
 -1        13 4.37792E-13-4.38395E-13-1.34520E+02-6.08445E-16-8.26986E-12-1.06278E-07
 -1        14 4.51092E-13-4.36313E-13-1.34520E+02 7.08219E-15 3.67339E-10-1.05902E-07
 -1        15-7.60829E-18 7.40771E-18-1.34520E+02 1.63127E-20 4.74090E-11 5.91211E-10
 -1        16-7.65554E-18 7.40033E-18-1.34520E+02-1.10020E-20 2.12013E-11 5.65098E-10
 -3
    1PSTEP                        19          45           2          
  100CL  110 4.29315E-07          16                     1   10           1
 -4  DISP        4    1
 -5  D1          1    2    1    0
 -5  D2          1    2    2    0
 -5  D3          1    2    3    0
 -5  ALL         1    2    0    0    1ALL
 -1         1 0.00000E+00 0.00000E+00 0.00000E+00
 -1         2 0.00000E+00 0.00000E+00 0.00000E+00
 -1         3 5.54529E-13-1.34421E-19-5.73552E-05
 -1         4 5.54530E-13-1.57934E-19-5.73552E-05
 -1         5 0.00000E+00 0.00000E+00 0.00000E+00
 -1         6 0.00000E+00 0.00000E+00 0.00000E+00
 -1         7 5.54529E-13-1.83670E-19-5.73552E-05
 -1         8 5.54530E-13-2.07183E-19-5.73552E-05
 -1         9-7.71473E-14 5.20282E-17-8.48871E-05
 -1        10-7.71526E-14 4.67059E-17-8.48871E-05
 -1        11 0.00000E+00 0.00000E+00-3.51666E-04
 -1        12 0.00000E+00 0.00000E+00-3.51666E-04
 -1        13-7.71420E-14 4.66783E-17-8.48871E-05
 -1        14-7.71473E-14 4.13459E-17-8.48871E-05
 -1        15 0.00000E+00 0.00000E+00-3.51666E-04
 -1        16 0.00000E+00 0.00000E+00-3.51666E-04
 -3
    1PSTEP                        20          45           2          
  100CL  110 4.29315E-07          16                     1   10           1
 -4  STRESS      6    1
 -5  SXX         1    4    1    1
 -5  SYY         1    4    2    2
 -5  SZZ         1    4    3    3
 -5  SXY         1    4    1    2
 -5  SYZ         1    4    2    3
 -5  SZX         1    4    3    1
 -1         1-6.16140E-20 8.33539E-20-1.20431E+01-1.73627E-19-1.69146E-14 5.82194E-08
 -1         2-6.15020E-20 8.33539E-20-1.20431E+01-1.73627E-19-1.44461E-14 5.82194E-08
 -1         3 4.88957E-15-4.93786E-15-1.20431E+01 1.02771E-14-2.54316E-13-1.07960E-07
 -1         4 4.86119E-15-4.93786E-15-1.20431E+01 1.02771E-14-2.56784E-13-1.07960E-07
 -1         5-6.16029E-20 8.33538E-20-1.20431E+01-1.73577E-19-2.16587E-14 5.82194E-08
 -1         6-6.15114E-20 8.33538E-20-1.20431E+01-1.73577E-19-1.91901E-14 5.82194E-08
 -1         7 4.88957E-15-4.93789E-15-1.20431E+01 1.02913E-14-1.61946E-13-1.07960E-07