
                        S T E P       1


                                INCREMENT     1


 displacements (vx,vy,vz) for set NALL and time  0.1000000E+01

         1  6.000000E+04  0.000000E+00  0.000000E+00
         2  6.000000E+04  3.258556E+00  0.000000E+00
         3  6.000000E+04  0.000000E+00  0.000000E+00
         4  6.000000E+04  1.731255E+00  1.731255E+00
         5  6.000000E+04  0.000000E+00  0.000000E+00
         6  6.000000E+04  9.166321E-01  1.731255E+00
         7  6.000000E+04  0.000000E+00  0.000000E+00
         8  6.000000E+04  9.941688E-01  1.542457E+00
         9  6.000000E+04  0.000000E+00  0.000000E+00
        10  6.000000E+04  5.000000E-01  0.000000E+00
        11  6.000000E+04  0.000000E+00  0.000000E+00
        12  6.000000E+04  0.000000E+00  0.000000E+00
        13  6.000000E+04  1.001048E+00  1.542457E+00

 mass flows for set NALL and time  0.1000000E+01

         1  6.000000E+04
         2  6.000000E+04
         3  6.000000E+04
         4  6.000000E+04
         5  6.000000E+04
         6  6.000000E+04
         7  6.000000E+04
         8  6.000000E+04
         9  6.000000E+04
        10  6.000000E+04
        11  6.000000E+04
        12  6.000000E+04
        13  6.000000E+04

 network pressures (total pressure for gases, static pressure for liquids and fluid depth for channels) for set NALL and time  0.1000000E+01

         1  0.000000E+00
         2  3.258556E+00
         3  0.000000E+00
         4  1.731255E+00
         5  0.000000E+00
         6  9.166321E-01
         7  0.000000E+00
         8  9.941688E-01
         9  0.000000E+00
        10  5.000000E-01
        11  0.000000E+00
        12  0.000000E+00
        13  1.001048E+00
