
                        S T E P       1


                                INCREMENT     1


 displacements (vx,vy,vz) for set NALL and time  0.1000000E+01

         1  3.000000E+04  0.000000E+00  0.000000E+00
         2  3.300000E+04  5.638553E+00  0.000000E+00
         3  3.000000E+04  0.000000E+00  0.000000E+00
         4  3.000000E+04  2.169517E+00  1.542457E+00
         5  3.300000E+04  0.000000E+00  0.000000E+00
         6  3.300000E+04  2.063769E+00  1.643645E+00
         7  3.000000E+04  0.000000E+00  0.000000E+00
         8  3.300000E+04  2.061003E+00  1.542457E+00
         9  3.000000E+03  0.000000E+00  0.000000E+00
        10  3.000000E+03  2.609172E+00  0.000000E+00
        11  3.000000E+03  0.000000E+00  0.000000E+00
        12  3.000000E+03  2.580502E+00  3.323122E-01
        13  3.000000E+03  0.000000E+00  0.000000E+00
        14  3.000000E+03  2.705159E+00  3.323122E-01
        15  3.000000E+03  0.000000E+00  0.000000E+00
        16  3.300000E+04  0.000000E+00  0.000000E+00
        17  3.300000E+04  2.060810E+00  1.542457E+00
        18  3.300000E+04  0.000000E+00  0.000000E+00
        19  3.300000E+04  1.999975E+00  1.542457E+00
        20  3.300000E+04  0.000000E+00  0.000000E+00
        21  3.300000E+04  2.000000E+00  0.000000E+00
        22  3.300000E+04  0.000000E+00  0.000000E+00

 mass flows for set NALL and time  0.1000000E+01

         1  3.000000E+04
         2  3.300000E+04
         3  3.000000E+04
         4  3.000000E+04
         5  3.300000E+04
         6  3.300000E+04
         7  3.000000E+04
         8  3.300000E+04
         9  3.000000E+03
        10  3.000000E+03
        11  3.000000E+03
        12  3.000000E+03
        13  3.000000E+03
        14  3.000000E+03
        15  3.000000E+03
        16  3.300000E+04
        17  3.300000E+04
        18  3.300000E+04
        19  3.300000E+04
        20  3.300000E+04
        21  3.300000E+04
        22  3.300000E+04

 network pressures (total pressure for gases, static pressure for liquids and fluid depth for channels) for set NALL and time  0.1000000E+01

         1  0.000000E+00
         2  5.638553E+00
         3  0.000000E+00
         4  2.169517E+00
         5  0.000000E+00
         6  2.063769E+00
         7  0.000000E+00
         8  2.061003E+00
         9  0.000000E+00
        10  2.609172E+00
        11  0.000000E+00
        12  2.580502E+00
        13  0.000000E+00
        14  2.705159E+00
        15  0.000000E+00
        16  0.000000E+00
        17  2.060810E+00
        18  0.000000E+00
        19  1.999975E+00
        20  0.000000E+00
        21  2.000000E+00
        22  0.000000E+00
