    1C
    1C
    1UUSER
    1UDATE              24.february.2021    
    1UTIME              10:38:41
    1UHOST
    1UPGM               CalculiX
    1UDIR
    1UDBN
    2C                                                                   1
 -1         1 0.00000E+00 1.00000E+01 8.00000E-01
 -1         2 0.00000E+00 1.00000E+01 0.00000E+00
 -1         3 1.25000E+00 1.00000E+01-6.25000E-03
 -1         4 1.25000E+00 1.00000E+01 8.00000E-01
 -1         5 0.00000E+00 0.00000E+00 8.00000E-01
 -1         6 0.00000E+00 0.00000E+00 0.00000E+00
 -1         7 1.25000E+00 0.00000E+00-6.25000E-03
 -1         8 1.25000E+00 0.00000E+00 8.00000E-01
 -1         9 2.50000E+00 1.00000E+01-1.25000E-02
 -1        10 2.50000E+00 1.00000E+01 8.00000E-01
 -1        11 2.50000E+00 0.00000E+00-1.25000E-02
 -1        12 2.50000E+00 0.00000E+00 8.00000E-01
 -1        13 3.75000E+00 1.00000E+01-1.87500E-02
 -1        14 3.75000E+00 1.00000E+01 8.00000E-01
 -1        15 3.75000E+00 0.00000E+00-1.87500E-02
 -1        16 3.75000E+00 0.00000E+00 8.00000E-01
 -1        17 5.00000E+00 1.00000E+01-2.50000E-02
 -1        18 5.00000E+00 1.00000E+01 8.00000E-01
 -1        19 5.00000E+00 0.00000E+00-2.50000E-02
 -1        20 5.00000E+00 0.00000E+00 8.00000E-01
 -1        21 6.25000E+00 1.00000E+01-3.12500E-02
 -1        22 6.25000E+00 1.00000E+01 8.00000E-01
 -1        23 6.25000E+00 0.00000E+00-3.12500E-02
 -1        24 6.25000E+00 0.00000E+00 8.00000E-01
 -1        25 7.50000E+00 1.00000E+01-3.75000E-02
 -1        26 7.50000E+00 1.00000E+01 8.00000E-01
 -1        27 7.50000E+00 0.00000E+00-3.75000E-02
 -1        28 7.50000E+00 0.00000E+00 8.00000E-01
 -1        29 8.75000E+00 1.00000E+01-4.37500E-02
 -1        30 8.75000E+00 1.00000E+01 8.00000E-01
 -1        31 8.75000E+00 0.00000E+00-4.37500E-02
 -1        32 8.75000E+00 0.00000E+00 8.00000E-01
 -1        33 1.00000E+01 1.00000E+01-5.00000E-02
 -1        34 1.00000E+01 1.00000E+01 8.00000E-01
 -1        35 1.00000E+01 0.00000E+00-5.00000E-02
 -1        36 1.00000E+01 0.00000E+00 8.00000E-01
 -1        37 1.12500E+01 1.00000E+01-5.62500E-02
 -1        38 1.12500E+01 1.00000E+01 8.00000E-01
 -1        39 1.12500E+01 0.00000E+00-5.62500E-02
 -1        40 1.12500E+01 0.00000E+00 8.00000E-01
 -1        41 1.25000E+01 1.00000E+01-6.25000E-02
 -1        42 1.25000E+01 1.00000E+01 8.00000E-01
 -1        43 1.25000E+01 0.00000E+00-6.25000E-02
 -1        44 1.25000E+01 0.00000E+00 8.00000E-01
 -1        45 1.37500E+01 1.00000E+01-6.87500E-02
 -1        46 1.37500E+01 1.00000E+01 8.00000E-01
 -1        47 1.37500E+01 0.00000E+00-6.87500E-02
 -1        48 1.37500E+01 0.00000E+00 8.00000E-01
 -1        49 1.50000E+01 1.00000E+01-7.50000E-02
 -1        50 1.50000E+01 1.00000E+01 8.00000E-01
 -1        51 1.50000E+01 0.00000E+00-7.50000E-02
 -1        52 1.50000E+01 0.00000E+00 8.00000E-01
 -1        53 1.62500E+01 1.00000E+01-8.12500E-02
 -1        54 1.62500E+01 1.00000E+01 8.00000E-01
 -1        55 1.62500E+01 0.00000E+00-8.12500E-02
 -1        56 1.62500E+01 0.00000E+00 8.00000E-01
 -1        57 1.75000E+01 1.00000E+01-8.75000E-02
 -1        58 1.75000E+01 1.00000E+01 8.00000E-01
 -1        59 1.75000E+01 0.00000E+00-8.75000E-02
 -1        60 1.75000E+01 0.00000E+00 8.00000E-01
 -1        61 1.87500E+01 1.00000E+01-9.37500E-02
 -1        62 1.87500E+01 1.00000E+01 8.00000E-01
 -1        63 1.87500E+01 0.00000E+00-9.37500E-02
 -1        64 1.87500E+01 0.00000E+00 8.00000E-01
 -1        65 2.00000E+01 1.00000E+01-1.00000E-01
 -1        66 2.00000E+01 1.00000E+01 8.00000E-01
 -1        67 2.00000E+01 0.00000E+00-1.00000E-01
 -1        68 2.00000E+01 0.00000E+00 8.00000E-01
 -1        69 2.12500E+01 1.00000E+01-1.06250E-01
 -1        70 2.12500E+01 1.00000E+01 8.00000E-01
 -1        71 2.12500E+01 0.00000E+00-1.06250E-01
 -1        72 2.12500E+01 0.00000E+00 8.00000E-01
 -1        73 2.25000E+01 1.00000E+01-1.12500E-01
 -1        74 2.25000E+01 1.00000E+01 8.00000E-01
 -1        75 2.25000E+01 0.00000E+00-1.12500E-01
 -1        76 2.25000E+01 0.00000E+00 8.00000E-01
 -1        77 2.37500E+01 1.00000E+01-1.18750E-01
 -1        78 2.37500E+01 1.00000E+01 8.00000E-01
 -1        79 2.37500E+01 0.00000E+00-1.18750E-01
 -1        80 2.37500E+01 0.00000E+00 8.00000E-01
 -1        81 2.50000E+01 1.00000E+01-1.25000E-01
 -1        82 2.50000E+01 1.00000E+01 8.00000E-01
 -1        83 2.50000E+01 0.00000E+00-1.25000E-01
 -1        84 2.50000E+01 0.00000E+00 8.00000E-01
 -1        85 2.62500E+01 1.00000E+01-1.31250E-01
 -1        86 2.62500E+01 1.00000E+01 8.00000E-01
 -1        87 2.62500E+01 0.00000E+00-1.31250E-01
 -1        88 2.62500E+01 0.00000E+00 8.00000E-01
 -1        89 2.75000E+01 1.00000E+01-1.37500E-01
 -1        90 2.75000E+01 1.00000E+01 8.00000E-01
 -1        91 2.75000E+01 0.00000E+00-1.37500E-01
 -1        92 2.75000E+01 0.00000E+00 8.00000E-01
 -1        93 2.87500E+01 1.00000E+01-1.43750E-01
 -1        94 2.87500E+01 1.00000E+01 8.00000E-01
 -1        95 2.87500E+01 0.00000E+00-1.43750E-01
 -1        96 2.87500E+01 0.00000E+00 8.00000E-01
 -1        97 3.00000E+01 1.00000E+01-1.50000E-01
 -1        98 3.00000E+01 1.00000E+01 8.00000E-01
 -1        99 3.00000E+01 0.00000E+00-1.50000E-01
 -1       100 3.00000E+01 0.00000E+00 8.00000E-01
 -1       101 3.12500E+01 1.00000E+01-1.56250E-01
 -1       102 3.12500E+01 1.00000E+01 8.00000E-01
 -1       103 3.12500E+01 0.00000E+00-1.56250E-01
 -1       104 3.12500E+01 0.00000E+00 8.00000E-01
 -1       105 3.25000E+01 1.00000E+01-1.62500E-01
 -1       106 3.25000E+01 1.00000E+01 8.00000E-01
 -1       107 3.25000E+01 0.00000E+00-1.62500E-01
 -1       108 3.25000E+01 0.00000E+00 8.00000E-01
 -1       109 3.37500E+01 1.00000E+01-1.68750E-01
 -1       110 3.37500E+01 1.00000E+01 8.00000E-01
 -1       111 3.37500E+01 0.00000E+00-1.68750E-01
 -1       112 3.37500E+01 0.00000E+00 8.00000E-01
 -1       113 3.50000E+01 1.00000E+01-1.75000E-01
 -1       114 3.50000E+01 1.00000E+01 8.00000E-01
 -1       115 3.50000E+01 0.00000E+00-1.75000E-01
 -1       116 3.50000E+01 0.00000E+00 8.00000E-01
 -1       117 3.62500E+01 1.00000E+01-1.81250E-01
 -1       118 3.62500E+01 1.00000E+01 8.00000E-01
 -1       119 3.62500E+01 0.00000E+00-1.81250E-01
 -1       120 3.62500E+01 0.00000E+00 8.00000E-01
 -1       121 3.75000E+01 1.00000E+01-1.87500E-01
 -1       122 3.75000E+01 1.00000E+01 8.00000E-01
 -1       123 3.75000E+01 0.00000E+00-1.87500E-01
 -1       124 3.75000E+01 0.00000E+00 8.00000E-01
 -1       125 3.87500E+01 1.00000E+01-1.93750E-01
 -1       126 3.87500E+01 1.00000E+01 8.00000E-01
 -1       127 3.87500E+01 0.00000E+00-1.93750E-01
 -1       128 3.87500E+01 0.00000E+00 8.00000E-01
 -1       129 4.00000E+01 1.00000E+01-2.00000E-01
 -1       130 4.00000E+01 1.00000E+01 8.00000E-01
 -1       131 4.00000E+01 0.00000E+00-2.00000E-01
 -1       132 4.00000E+01 0.00000E+00 8.00000E-01
 -1       133 4.12500E+01 1.00000E+01-2.06250E-01
 -1       134 4.12500E+01 1.00000E+01 8.00000E-01
 -1       135 4.12500E+01 0.00000E+00-2.06250E-01
 -1       136 4.12500E+01 0.00000E+00 8.00000E-01
 -1       137 4.25000E+01 1.00000E+01-2.12500E-01
 -1       138 4.25000E+01 1.00000E+01 8.00000E-01
 -1       139 4.25000E+01 0.00000E+00-2.12500E-01
 -1       140 4.25000E+01 0.00000E+00 8.00000E-01
 -1       141 4.37500E+01 1.00000E+01-2.18750E-01
 -1       142 4.37500E+01 1.00000E+01 8.00000E-01
 -1       143 4.37500E+01 0.00000E+00-2.18750E-01
 -1       144 4.37500E+01 0.00000E+00 8.00000E-01
 -1       145 4.50000E+01 1.00000E+01-2.25000E-01
 -1       146 4.50000E+01 1.00000E+01 8.00000E-01
 -1       147 4.50000E+01 0.00000E+00-2.25000E-01
 -1       148 4.50000E+01 0.00000E+00 8.00000E-01
 -1       149 4.62500E+01 1.00000E+01-2.31250E-01
 -1       150 4.62500E+01 1.00000E+01 8.00000E-01
 -1       151 4.62500E+01 0.00000E+00-2.31250E-01
 -1       152 4.62500E+01 0.00000E+00 8.00000E-01
 -1       153 4.75000E+01 1.00000E+01-2.37500E-01
 -1       154 4.75000E+01 1.00000E+01 8.00000E-01
 -1       155 4.75000E+01 0.00000E+00-2.37500E-01
 -1       156 4.75000E+01 0.00000E+00 8.00000E-01
 -1       157 4.87500E+01 1.00000E+01-2.43750E-01
 -1       158 4.87500E+01 1.00000E+01 8.00000E-01
 -1       159 4.87500E+01 0.00000E+00-2.43750E-01
 -1       160 4.87500E+01 0.00000E+00 8.00000E-01
 -1       161 5.00000E+01 1.00000E+01-2.50000E-01
 -1       162 5.00000E+01 1.00000E+01 8.00000E-01
 -1       163 5.00000E+01 0.00000E+00-2.50000E-01
 -1       164 5.00000E+01 0.00000E+00 8.00000E-01
 -3
    3C                                                                   1
 -1         1    1    0WATER
 -2         1         2         3         4         5         6         7         8
 -1         2    1    0WATER
 -2         4         3         9        10         8         7        11        12
 -1         3    1    0WATER
 -2        10         9        13        14        12        11        15        16
 -1         4    1    0WATER
 -2        14        13        17        18        16        15        19        20
 -1         5    1    0WATER
 -2        18        17        21        22        20        19        23        24
 -1         6    1    0WATER
 -2        22        21        25        26        24        23        27        28
 -1         7    1    0WATER
 -2        26        25        29        30        28        27        31        32
 -1         8    1    0WATER
 -2        30        29        33        34        32        31        35        36
 -1         9    1    0WATER
 -2        34        33        37        38        36        35        39        40
 -1        10    1    0WATER
 -2        38        37        41        42        40        39        43        44
 -1        11    1    0WATER
 -2        42        41        45        46        44        43        47        48
 -1        12    1    0WATER
 -2        46        45        49        50        48        47        51        52
 -1        13    1    0WATER
 -2        50        49        53        54        52        51        55        56
 -1        14    1    0WATER
 -2        54        53        57        58        56        55        59        60
 -1        15    1    0WATER
 -2        58        57        61        62        60        59        63        64
 -1        16    1    0WATER
 -2        62        61        65        66        64        63        67        68
 -1        17    1    0WATER
 -2        66        65        69        70        68        67        71        72
 -1        18    1    0WATER
 -2        70        69        73        74        72        71        75        76
 -1        19    1    0WATER
 -2        74        73        77        78        76        75        79        80
 -1        20    1    0WATER
 -2        78        77        81        82        80        79        83        84
 -1        21    1    0WATER
 -2        82        81        85        86        84        83        87        88
 -1        22    1    0WATER
 -2        86        85        89        90        88        87        91        92
 -1        23    1    0WATER
 -2        90        89        93        94        92        91        95        96
 -1        24    1    0WATER
 -2        94        93        97        98        96        95        99       100
 -1        25    1    0WATER
 -2        98        97       101       102       100        99       103       104
 -1        26    1    0WATER
 -2       102       101       105       106       104       103       107       108
 -1        27    1    0WATER
 -2       106       105       109       110       108       107       111       112
 -1        28    1    0WATER
 -2       110       109       113       114       112       111       115       116
 -1        29    1    0WATER
 -2       114       113       117       118       116       115       119       120
 -1        30    1    0WATER
 -2       118       117       121       122       120       119       123       124
 -1        31    1    0WATER
 -2       122       121       125       126       124       123       127       128
 -1        32    1    0WATER
 -2       126       125       129       130       128       127       131       132
 -1        33    1    0WATER
 -2       130       129       133       134       132       131       135       136
 -1        34    1    0WATER
 -2       134       133       137       138       136       135       139       140
 -1        35    1    0WATER
 -2       138       137       141       142       140       139       143       144
 -1        36    1    0WATER
 -2       142       141       145       146       144       143       147       148
 -1        37    1    0WATER
 -2       146       145       149       150       148       147       151       152
 -1        38    1    0WATER
 -2       150       149       153       154       152       151       155       156
 -1        39    1    0WATER
 -2       154       153       157       158       156       155       159       160
 -1        40    1    0WATER
 -2       158       157       161       162       160       159       163       164
 -3
    1PSHOCKCOEF=     0.1000000000000                                                                                                
    1PSTEP                         1                                                                                                
  100CL  10154.572991682         164                     3    1           1                                                         
 -4  SA3DF       1    1                                                                                                             
 -5  SA          1    1    0    0                                                                                                   
 -1         1 1.00000E-01
 -1         2 1.00000E-01
 -1         3 1.27925E-03
 -1         4 1.27778E-03
 -1         5 1.00000E-01
 -1         6 1.00000E-01
 -1         7 1.27146E-03
 -1         8 1.27007E-03
 -1         9 2.45589E-03
 -1        10 2.45790E-03
 -1        11 2.46054E-03
 -1        12 2.46249E-03
 -1        13 1.71978E-03
 -1        14 1.71982E-03
 -1        15 1.71484E-03
 -1        16 1.71490E-03
 -1        17 2.63043E-03
 -1        18 2.63161E-03
 -1        19 2.63345E-03
 -1        20 2.63461E-03
 -1        21 1.35533E-03
 -1        22 1.35530E-03
 -1        23 1.35153E-03
 -1        24 1.35151E-03
 -1        25 1.38101E-03
 -1        26 1.38060E-03
 -1        27 1.38310E-03
 -1        28 1.38269E-03
 -1        29 6.98883E-04
 -1        30 7.00689E-04
 -1        31 7.02394E-04
 -1        32 7.04196E-04
 -1        33 1.14030E-03
 -1        34 1.14275E-03
 -1        35 1.13838E-03
 -1        36 1.14084E-03
 -1        37 3.08983E-03
 -1        38 3.09326E-03
 -1        39 3.09296E-03
 -1        40 3.09634E-03
 -1        41 2.86066E-03
 -1        42 2.86335E-03
 -1        43 2.85992E-03
 -1        44 2.86263E-03
 -1        45 3.89845E-03
 -1        46 3.90099E-03
 -1        47 3.89998E-03
 -1        48 3.90249E-03
 -1        49 3.33074E-03
 -1        50 3.33245E-03
 -1        51 3.33065E-03
 -1        52 3.33236E-03
 -1        53 4.71608E-03
 -1        54 4.71800E-03
 -1        55 4.71629E-03
 -1        56 4.71821E-03
 -1        57 4.50297E-03
 -1        58 4.50422E-03
 -1        59 4.50175E-03
 -1        60 4.50302E-03
 -1        61 5.84453E-03
 -1        62 5.84526E-03
 -1        63 5.84270E-03
 -1        64 5.84344E-03
 -1        65 5.83382E-03
 -1        66 5.83357E-03
 -1        67 5.83024E-03
 -1        68 5.82997E-03
 -1        69 7.45177E-03
 -1        70 7.45095E-03
 -1        71 7.44653E-03
 -1        72 7.44568E-03
 -1        73 7.59058E-03
 -1        74 7.58849E-03
 -1        75 7.58338E-03
 -1        76 7.58123E-03
 -1        77 9.37717E-03
 -1        78 9.37336E-03
 -1        79 9.36693E-03
 -1        80 9.36298E-03
 -1        81 1.00506E-02
 -1        82 1.00455E-02
 -1        83 1.00376E-02
 -1        84 1.00323E-02
 -1        85 1.20986E-02
 -1        86 1.20907E-02
 -1        87 1.20807E-02
 -1        88 1.20724E-02
 -1        89 1.32824E-02
 -1        90 1.32714E-02
 -1        91 1.32598E-02
 -1        92 1.32483E-02
 -1        93 1.58047E-02
 -1        94 1.57896E-02
 -1        95 1.57742E-02
 -1        96 1.57584E-02
 -1        97 1.77544E-02
 -1        98 1.77337E-02
 -1        99 1.77150E-02
 -1       100 1.76932E-02
 -1       101 2.05673E-02
 -1       102 2.05402E-02
 -1       103 2.05161E-02
 -1       104 2.04874E-02
 -1       105 2.29327E-02
 -1       106 2.28977E-02
 -1       107 2.28672E-02
 -1       108 2.28299E-02
 -1       109 2.48353E-02
 -1       110 2.47933E-02
 -1       111 2.47553E-02
 -1       112 2.47102E-02
 -1       113 2.25939E-02
 -1       114 2.25520E-02
 -1       115 2.25121E-02
 -1       116 2.24678E-02
 -1       117 1.79414E-02
 -1       118 1.79301E-02
 -1       119 1.79302E-02
 -1       120 1.79228E-02
 -1       121 3.39312E-03
 -1       122 3.55520E-03
 -1       123 3.77927E-03
 -1       124 3.94038E-03
 -1       125 4.02797E-02
 -1       126 4.00281E-02
 -1       127 3.99145E-02
 -1       128 3.96420E-02
 -1       129 8.34111E-02
 -1       130 8.28504E-02
 -1       131 8.25320E-02
 -1       132 8.18399E-02
 -1       133 1.00000E-01
 -1       134 9.97588E-02
 -1       135 9.95177E-02
 -1       136 9.89529E-02
 -1       137 8.45426E-02
 -1       138 8.41994E-02
 -1       139 8.39776E-02
 -1       140 8.35227E-02
 -1       141 2.58380E-02
 -1       142 2.58011E-02
 -1       143 2.57513E-02
 -1       144 2.57111E-02
 -1       145 7.02780E-02
 -1       146 6.99407E-02
 -1       147 6.97280E-02
 -1       148 6.93248E-02
 -1       149 9.67283E-02
 -1       150 9.61748E-02
 -1       151 9.57310E-02
 -1       152 9.50052E-02
 -1       153 3.05751E-02
 -1       154 2.97953E-02
 -1       155 3.05473E-02
 -1       156 2.98340E-02
 -1       157 1.06763E-02
 -1       158 1.13096E-02
 -1       159 1.25860E-02
 -1       160 1.31335E-02
 -1       161 1.00000E-01
 -1       162 1.00000E-01
 -1       163 1.00000E-01
 -1       164 1.00000E-01
 -3
 9999
