
                        S T E P       1


                                INCREMENT     1


 displacements (vx,vy,vz) for set NALL and time  0.1000000E+01

         1  6.000000E+04  0.000000E+00  0.000000E+00
         2  6.000000E+04  8.168242E+00  0.000000E+00
         4  6.000000E+04  0.000000E+00  0.000000E+00
         6  6.000000E+04  5.301270E+00  1.542457E+00
         7  6.000000E+04  0.000000E+00  0.000000E+00
         8  6.000000E+04  5.422822E+00  1.542457E+00
         9  6.000000E+04  0.000000E+00  0.000000E+00
        10  6.000000E+04  3.441861E+00  3.441904E+00
        11  6.000000E+04  0.000000E+00  0.000000E+00
        12  6.000000E+04  3.322281E+00  3.441904E+00
        13  6.000000E+04  0.000000E+00  0.000000E+00
        14  6.000000E+04  7.450038E-01  1.542457E+00
        15  6.000000E+04  0.000000E+00  0.000000E+00
        16  6.000000E+04  3.799952E+00  1.542457E+00
        17  6.000000E+04  0.000000E+00  0.000000E+00
        18  6.000000E+04  3.800000E+00  0.000000E+00
        19  6.000000E+04  0.000000E+00  0.000000E+00

 mass flows for set NALL and time  0.1000000E+01

         1  6.000000E+04
         2  6.000000E+04
         4  6.000000E+04
         6  6.000000E+04
         7  6.000000E+04
         8  6.000000E+04
         9  6.000000E+04
        10  6.000000E+04
        11  6.000000E+04
        12  6.000000E+04
        13  6.000000E+04
        14  6.000000E+04
        15  6.000000E+04
        16  6.000000E+04
        17  6.000000E+04
        18  6.000000E+04
        19  6.000000E+04

 network pressures (total pressure for gases, static pressure for liquids and fluid depth for channels) for set NALL and time  0.1000000E+01

         1  0.000000E+00
         2  8.168242E+00
         4  0.000000E+00
         6  5.301270E+00
         7  0.000000E+00
         8  5.422822E+00
         9  0.000000E+00
        10  3.441861E+00
        11  0.000000E+00
        12  3.322281E+00
        13  0.000000E+00
        14  7.450038E-01
        15  0.000000E+00
        16  3.799952E+00
        17  0.000000E+00
        18  3.800000E+00
        19  0.000000E+00
