
                        S T E P       1


                                INCREMENT     1


 displacements (vx,vy,vz) for set NALL and time  0.1000000E+01

         1  5.000000E+04  1.930463E+00  0.000000E+00
         2  5.000000E+04  0.000000E+00  0.000000E+00
         4  5.000000E+04  9.499996E-01  1.209585E+00
         6  5.000000E+04  9.764431E-01  1.209585E+00
         7  5.000000E+04  0.000000E+00  0.000000E+00
         8  5.000000E+04  1.447272E+00  1.209585E+00
         9  5.000000E+04  0.000000E+00  0.000000E+00
        10  5.000000E+04  1.433836E+00  1.209585E+00
        11  5.000000E+04  0.000000E+00  0.000000E+00
        12  5.000000E+04  1.419166E+00  1.209585E+00
        13  5.000000E+04  0.000000E+00  0.000000E+00
        14  5.000000E+04  1.402931E+00  1.209585E+00
        15  5.000000E+04  0.000000E+00  0.000000E+00
        16  5.000000E+04  1.384614E+00  1.209585E+00
        17  5.000000E+04  0.000000E+00  0.000000E+00
        18  5.000000E+04  1.363325E+00  1.209585E+00
        19  5.000000E+04  0.000000E+00  0.000000E+00
        20  5.000000E+04  1.337497E+00  1.209585E+00
        21  5.000000E+04  0.000000E+00  0.000000E+00
        22  5.000000E+04  1.302914E+00  1.209585E+00
        23  5.000000E+04  0.000000E+00  0.000000E+00
        25  5.000000E+04  0.000000E+00  0.000000E+00
        26  5.000000E+04  1.209552E+00  1.209601E+00
        30  5.000000E+04  1.121396E+00  1.209601E+00
        31  5.000000E+04  0.000000E+00  0.000000E+00
        32  5.000000E+04  1.093927E+00  1.209601E+00
        33  5.000000E+04  0.000000E+00  0.000000E+00
        34  5.000000E+04  1.075569E+00  1.209601E+00
        35  5.000000E+04  0.000000E+00  0.000000E+00
        36  5.000000E+04  1.061856E+00  1.209601E+00
        37  5.000000E+04  0.000000E+00  0.000000E+00
        38  5.000000E+04  1.389774E+00  1.209601E+00
        39  5.000000E+04  0.000000E+00  0.000000E+00
        40  5.000000E+04  1.438408E+00  1.209601E+00
        41  5.000000E+04  0.000000E+00  0.000000E+00
        42  5.000000E+04  1.482414E+00  1.209601E+00
        43  5.000000E+04  0.000000E+00  0.000000E+00
        44  5.000000E+04  1.523480E+00  1.209601E+00
        45  5.000000E+04  0.000000E+00  0.000000E+00
        46  5.000000E+04  1.562480E+00  1.209601E+00
        47  5.000000E+04  0.000000E+00  0.000000E+00
        48  5.000000E+04  1.599935E+00  1.209601E+00
        49  5.000000E+04  0.000000E+00  0.000000E+00
        50  5.000000E+04  1.600000E+00  0.000000E+00
        51  5.000000E+04  0.000000E+00  0.000000E+00
        53  5.000000E+04  0.000000E+00  0.000000E+00
        55  5.000000E+04  0.000000E+00  0.000000E+00

 mass flows for set NALL and time  0.1000000E+01

         1  5.000000E+04
         2  5.000000E+04
         4  5.000000E+04
         6  5.000000E+04
         7  5.000000E+04
         8  5.000000E+04
         9  5.000000E+04
        10  5.000000E+04
        11  5.000000E+04
        12  5.000000E+04
        13  5.000000E+04
        14  5.000000E+04
        15  5.000000E+04
        16  5.000000E+04
        17  5.000000E+04
        18  5.000000E+04
        19  5.000000E+04
        20  5.000000E+04
        21  5.000000E+04
        22  5.000000E+04
        23  5.000000E+04
        25  5.000000E+04
        26  5.000000E+04
        30  5.000000E+04
        31  5.000000E+04
        32  5.000000E+04
        33  5.000000E+04
        34  5.000000E+04
        35  5.000000E+04
        36  5.000000E+04
        37  5.000000E+04
        38  5.000000E+04
        39  5.000000E+04
        40  5.000000E+04
        41  5.000000E+04
        42  5.000000E+04
        43  5.000000E+04
        44  5.000000E+04
        45  5.000000E+04
        46  5.000000E+04
        47  5.000000E+04
        48  5.000000E+04
        49  5.000000E+04
        50  5.000000E+04
        51  5.000000E+04
        53  5.000000E+04
        55  5.000000E+04

 network pressures (total pressure for gases, static pressure for liquids and fluid depth for channels) for set NALL and time  0.1000000E+01

         1  1.930463E+00
         2  0.000000E+00
         4  9.499996E-01
         6  9.764431E-01
         7  0.000000E+00
         8  1.447272E+00
         9  0.000000E+00
        10  1.433836E+00
        11  0.000000E+00
        12  1.419166E+00
        13  0.000000E+00
        14  1.402931E+00
        15  0.000000E+00
        16  1.384614E+00
        17  0.000000E+00
        18  1.363325E+00
        19  0.000000E+00
        20  1.337497E+00
        21  0.000000E+00
        22  1.302914E+00
        23  0.000000E+00
        25  0.000000E+00
        26  1.209552E+00
        30  1.121396E+00
        31  0.000000E+00
        32  1.093927E+00
        33  0.000000E+00
        34  1.075569E+00
        35  0.000000E+00
        36  1.061856E+00
        37  0.000000E+00
        38  1.389774E+00
        39  0.000000E+00
        40  1.438408E+00
        41  0.000000E+00
        42  1.482414E+00
        43  0.000000E+00
        44  1.523480E+00
        45  0.000000E+00
        46  1.562480E+00
        47  0.000000E+00
        48  1.599935E+00
        49  0.000000E+00
        50  1.600000E+00
        51  0.000000E+00
        53  0.000000E+00
        55  0.000000E+00
