    1C
    1UUSER                                                              
    1UDATE              15.april.2025                                   
    1UTIME              18:45:00                                        
    1UHOST                                                              
    1UPGM               CalculiX                                        
    1UVERSION           Version DEVELOPMENT                             
    1UCOMPILETIME       Tue Apr 15 17:57:22 CEST 2025                    
    1UDIR                                                               
    1UDBN                                                               
    1UMAT    1EL                                                        
    2C                          1879                                     1
 -1        28 0.00000E+00-5.08067E-01 4.00000E+00
 -1        31 1.00000E+00-1.16760E+00 6.00000E+00
 -1        33 5.00000E-01-8.01316E-01 5.00000E+00
 -1        34 0.00000E+00-1.16760E+00 6.00000E+00
 -1        35 5.00000E-01-1.16760E+00 6.00000E+00
 -1        36 0.00000E+00-8.01316E-01 5.00000E+00
 -1       165 4.67120E-01-5.01083E-01 6.76687E+00
 -1       166 1.00000E+00 2.82475E-01 4.73833E+00
 -1       167 3.57200E-01 9.65950E-01 1.04319E+00
 -1       168 1.00000E+00 3.16591E-01 1.88022E+00
 -1       169 6.01245E-01 6.01536E-01 0.00000E+00
 -1       170 5.08263E-01 4.91933E-01 4.00000E+00
 -1       171 5.38049E-01 0.00000E+00 0.00000E+00
 -1       172 1.00000E+00-4.56728E-01 6.67124E+00
 -1       173 0.00000E+00 3.58776E-01 8.85026E-01
 -1       174 0.00000E+00 5.35646E-01 0.00000E+00
 -1       175 1.00000E+00-2.58501E-01 2.86477E+00
 -1       176 0.00000E+00 4.32839E-01 2.95082E+00
 -1       177 1.00000E+00-2.62522E-02 9.16352E-01
 -1       178 5.12412E-01 8.74508E-01 2.00000E+00
 -1       179 0.00000E+00 7.21184E-01 2.97400E+00
 -1       180 1.00000E+00 7.23756E-01 2.96041E+00
 -1       181 0.00000E+00 3.26101E-01 1.85942E+00
 -1       182 0.00000E+00-2.04815E-02 8.09738E-01
 -1       183 1.00000E+00 3.03062E-01 3.56189E+00
 -1       184 0.00000E+00 9.74627E-01 9.00922E-01
 -1       185 5.25434E-01 1.00000E+00 0.00000E+00
 -1       186 0.00000E+00 2.66361E-01 4.78989E+00
 -1       187 1.00000E+00 9.77985E-01 8.39381E-01
 -1       188 0.00000E+00-4.61758E-01 6.68217E+00
 -1       189 1.00000E+00 5.26054E-01 0.00000E+00
 -1       190 7.54882E-01 2.39328E-01 4.58732E-01
 -1       191 6.02860E-01 2.88953E-01 2.34902E+00
 -1       192 3.36111E-01 6.62901E-01 9.56880E-01
 -1       193 4.90883E-01 1.96984E-01 1.83369E+00
 -1       194 5.28156E-01 7.20518E-01 4.64344E-01
 -1       195 8.04738E-01 3.48895E-01 3.91085E+00
 -1       196 7.22447E-01 6.54741E-01 1.43522E+00
 -1       197 7.67812E-01 8.01945E-02 2.98048E+00
 -1       198 3.15667E-01 5.71063E-01 1.88653E+00
 -1       199 7.01512E-01 5.70641E-01 1.93801E+00
 -1       200 3.72240E-01 4.21633E-01 3.39446E+00
 -1       201 6.19159E-01 6.77758E-02 4.57538E+00
 -1       202 1.00000E+00 7.57462E-01 3.84482E-01
 -1       203 0.00000E+00 3.76986E-01 1.42966E+00
 -1       204 1.00000E+00 5.28974E-02 3.28272E+00
 -1       205 3.34112E-01 9.91498E-01 5.22734E-01
 -1       206 0.00000E+00 5.01241E-01 3.40585E+00
 -1       207 1.00000E+00 6.15916E-01 1.31365E+00
 -1       208 3.20457E-01-3.95187E-03 3.57341E-01
 -1       209 2.70960E-01 1.00000E+00 0.00000E+00
 -1       210 3.47514E-01 3.99096E-01 4.34471E+00
 -1       211 1.00000E+00 4.06458E-01 4.31851E+00
 -1       212 1.87240E-01 9.74362E-01 9.05594E-01
 -1       213 0.00000E+00 7.35499E-01 8.94372E-01
 -1       214 5.06172E-01-1.25492E-01 2.00000E+00
 -1       215 0.00000E+00 3.49211E-01 4.29885E-01
 -1       216 0.00000E+00 4.00416E-01 4.34003E+00
 -1       217 1.00000E+00 8.08866E-01 2.46665E+00
 -1       218 0.00000E+00-4.85669E-03 3.95822E-01
 -1       219 0.00000E+00 7.76085E-01 0.00000E+00
 -1       220 0.00000E+00 4.93149E-01 2.31656E+00
 -1       221 1.00000E+00-5.88309E-03 4.35347E-01
 -1       222 2.79685E-01 0.00000E+00 0.00000E+00
 -1       223 6.61456E-01 9.72982E-01 9.29572E-01
 -1       224 0.00000E+00 2.76788E-01 0.00000E+00
 -1       225 1.00000E+00 2.47167E-01 1.23141E+00
 -1       226 1.00000E+00-6.42642E-02 1.43206E+00
 -1       227 5.69190E-01 3.07339E-01 0.00000E+00
 -1       228 0.00000E+00 9.65287E-02 5.29982E+00
 -1       229 1.00000E+00 7.66926E-01 0.00000E+00
 -1       230 8.32569E-01-1.96477E-01 2.50064E+00
 -1       231 6.26316E-01-2.58953E-02 9.10122E-01
 -1       232 7.51140E-01 9.32501E-01 1.46757E+00
 -1       233 1.00000E+00 2.70944E-01 0.00000E+00
 -1       234 7.89965E-01 5.51862E-01 0.00000E+00
 -1       235 0.00000E+00 8.09303E-01 2.46385E+00
 -1       236 0.00000E+00 6.01917E-01 1.95251E+00
 -1       237 0.00000E+00 6.20140E-01 3.46503E+00
 -1       238 7.50322E-01 9.95174E-01 3.94586E-01
 -1       239 7.09924E-01 6.14415E-01 3.49072E+00
 -1       240 1.00000E+00 9.41370E-01 1.36797E+00
 -1       241 0.00000E+00 9.35977E-01 1.42937E+00
 -1       242 5.10684E-01 6.98829E-01 3.08960E+00
 -1       243 5.49499E-01 7.92153E-01 0.00000E+00
 -1       244 1.00000E+00 6.18212E-02 3.82040E+00
 -1       245 1.00000E+00 9.95264E-01 3.90896E-01
 -1       246 5.52691E-01 2.69813E-01 4.77889E+00
 -1       247 1.00000E+00 3.74035E-01 3.22418E+00
 -1       248 1.00000E+00 5.20559E-02 4.36182E+00
 -1       249 2.84924E-01 5.43297E-01 0.00000E+00
 -1       250 0.00000E+00 9.94379E-01 4.25592E-01
 -1       251 1.00000E+00-3.63830E-01 3.39203E+00
 -1       252 7.69868E-01 1.00000E+00 0.00000E+00
 -1       253 0.00000E+00 3.18334E-01 2.43640E+00
 -1       254 1.00000E+00 9.12601E-02 5.31478E+00
 -1       255 1.00000E+00-1.81540E-01 2.40436E+00
 -1       256 1.00000E+00 5.02774E-01 8.05692E-01
 -1       257 1.00000E+00 6.22350E-01 3.45506E+00
 -1       258 7.77507E-01 0.00000E+00 0.00000E+00
 -1       259 1.00000E+00 1.98284E-01 2.90665E+00
 -1       260 0.00000E+00-6.29722E-02 1.41762E+00
 -1       261 3.49257E-01 2.81247E-01 2.00641E-01
 -1       262 8.37266E-01 7.54205E-01 9.30926E-01
 -1       263 3.88210E-01 5.92678E-01 1.35037E+00
 -1       264 1.78991E-01 6.50247E-01 2.18385E+00
 -1       265 1.71334E-01 7.82517E-01 6.86577E-01
 -1       266 6.07467E-01 1.45680E-01 2.06226E-01
 -1       267 3.70340E-01 8.28629E-01 1.99259E-01
 -1       268 1.23212E-01 5.34242E-01 1.19208E+00
 -1       269 5.93882E-01 4.19661E-01 1.57212E+00
 -1       270 7.30949E-01 8.09161E-01 1.17050E+00
 -1       271 7.21176E-01 3.14818E-01 1.11418E+00
 -1       272 2.03160E-01 1.44863E-01 1.92829E+00
 -1       273 7.76798E-01 7.73083E-01 1.78749E-01
 -1       274 5.47705E-01 4.28434E-01 6.39045E-01
 -1       275 8.22789E-01 7.33605E-01 1.70671E+00
 -1       276 6.49362E-01 1.98225E-01 1.65808E+00
 -1       277 7.49456E-01 7.13787E-02 2.00863E+00
 -1       278 5.03853E-01 7.85511E-01 7.27711E-01
 -1       279 8.46656E-01 1.32582E-01 6.79786E-01
 -1       280 1.47898E-01 7.66651E-01 1.17292E+00
 -1       281 8.00019E-01 4.89090E-01 1.62536E+00
 -1       282 8.27962E-01 5.80595E-01 2.10780E-01
 -1       283 6.55726E-01 3.93230E-01 2.23787E-01
 -1       284 6.42178E-01 4.75350E-01 4.24823E-01
 -1       285 6.09486E-01 1.62823E-01 6.17064E-01
 -1       286 3.81313E-01 6.37003E-01 2.50200E+00
 -1       287 1.23953E-01 7.42720E-01 1.69464E+00
 -1       288 3.14372E-01 3.16101E-01 1.20082E+00
 -1       289 2.46961E-01 3.78324E-01 1.63613E+00
 -1       290 2.91142E-01 5.09177E-01 4.37854E-01
 -1       291 8.51290E-01 3.66891E-01 6.42754E-01
 -1       292 7.69314E-01 2.70786E-01 1.80596E+00
 -1       293 8.40445E-01 3.02858E-01 2.13983E-01
 -1       294 5.46940E-01 6.33920E-01 2.26413E-01
 -1       295 5.15033E-01 2.04110E-01 4.13911E-01
 -1       296 5.41846E-01 6.80089E-01 1.67921E+00
 -1       297 7.32831E-01 7.76456E-01 4.61566E-01
 -1       298 3.11673E-01 5.08778E-01 2.88418E+00
 -1       299 7.91404E-01 7.91613E-01 0.00000E+00
 -1       300 1.00000E+00 3.82474E-01 2.43036E+00
 -1       301 8.53250E-01 9.59150E-01 1.14235E+00
 -1       302 5.32632E-01 9.93605E-01 4.53772E-01
 -1       303 4.58407E-01-1.26857E-02 6.37895E-01
 -1       304 5.71137E-01 9.51496E-01 1.24451E+00
 -1       305 2.16396E-01 9.12402E-01 1.67146E+00
 -1       306 0.00000E+00 6.78647E-01 4.32288E-01
 -1       307 6.36730E-01 9.98837E-01 1.95170E-01
 -1       308 1.00000E+00 2.15382E-01 4.23651E-01
 -1       309 3.58831E-01 6.17438E-01 3.47718E+00
 -1       310 1.00000E+00 6.50092E-01 1.61881E+00
 -1       311 1.00000E+00 6.03590E-01 1.59582E-01
 -1       312 0.00000E+00 1.18002E-01 1.66841E+00
 -1       313 0.00000E+00 9.58283E-01 1.15437E+00
 -1       314 0.00000E+00 5.48232E-01 1.15300E+00
 -1       315 0.00000E+00 7.58363E-01 1.68784E+00
 -1       316 7.30246E-01 9.86991E-01 6.45935E-01
 -1       317 2.82394E-01-4.26947E-02 1.16779E+00
 -1       318 1.00000E+00 3.01287E-01 1.53259E+00
 -1       319 6.99261E-01-4.64055E-02 1.21736E+00
 -1       320 1.00000E+00-9.10951E-02 1.70444E+00
 -1       321 1.00000E+00-1.41562E-02 6.73686E-01
 -1       322 6.28732E-01 8.26699E-01 2.34949E+00
 -1       323 1.00000E+00 9.98941E-01 1.86416E-01
 -1       324 2.51173E-01-9.24080E-02 1.71665E+00
 -1       325 8.06711E-01 3.07891E-01 0.00000E+00
 -1       326 0.00000E+00 1.93046E-01 2.11733E-01
 -1       327 0.00000E+00-9.06988E-02 1.70073E+00
 -1       328 0.00000E+00 8.54700E-01 2.08323E-01
 -1       329 0.00000E+00 1.73610E-01 1.16232E+00
 -1       330 0.00000E+00 9.98591E-01 2.14531E-01
 -1       331 1.00000E+00 7.44842E-01 8.39378E-01
 -1       332 2.81946E-01 8.34232E-01 2.29812E+00
 -1       333 6.31526E-01-1.72295E-01 2.34270E+00
 -1       334 1.00000E+00-9.32689E-03 4.70086E+00
 -1       335 1.00000E+00 9.88616E-01 6.04432E-01
 -1       336 1.00000E+00 6.15420E-02 2.60814E+00
 -1       337 0.00000E+00 5.69305E-01 3.19402E+00
 -1       338 1.00000E+00-1.43924E-03 2.16827E-01
 -1       339 1.00000E+00 9.62536E-01 1.09410E+00
 -1       340 1.00000E+00 2.29069E-01 8.96483E-01
 -1       341 0.00000E+00 4.81021E-01 2.64134E+00
 -1       342 0.00000E+00 3.00367E-01 2.14950E+00
 -1       343 0.00000E+00 1.49180E-01 6.63244E-01
 -1       344 1.00000E+00 6.28687E-01 6.12252E-01
 -1       345 7.02633E-01 9.01983E-01 1.76789E+00
 -1       346 0.00000E+00 4.42737E-01 2.11524E-01
 -1       347 7.50966E-01-1.51938E-01 2.20053E+00
 -1       348 2.81168E-01 2.74751E-01 0.00000E+00
 -1       349 1.69467E-01 9.84452E-01 7.05878E-01
 -1       350 1.00000E+00 5.42391E-01 1.08536E+00
 -1       351 2.50381E-01 7.67691E-01 2.71719E+00
 -1       352 0.00000E+00 5.42002E-01 6.57643E-01
 -1       353 6.83074E-01 7.73474E-01 2.68347E+00
 -1       354 0.00000E+00 9.86664E-01 6.53954E-01
 -1       355 7.73884E-01-1.80364E-03 2.42374E-01
 -1       356 0.00000E+00 9.09020E-01 1.70336E+00
 -1       357 7.91541E-01-2.35242E-01 2.73413E+00
 -1       358 2.58732E-01-2.45778E-02 8.86744E-01
 -1       359 5.01758E-01 1.17702E-02 5.53510E+00
 -1       360 1.00000E+00 9.12875E-01 1.66695E+00
 -1       361 1.00000E+00 1.02512E-01 1.05259E+00
 -1       362 1.00000E+00-4.36905E-02 1.18130E+00
 -1       363 0.00000E+00 6.45647E-01 1.43031E+00
 -1       364 0.00000E+00-4.14277E-02 1.15038E+00
 -1       365 3.01706E-01 9.97974E-01 2.56694E-01
 -1       366 2.77576E-01 7.74334E-01 0.00000E+00
 -1       367 8.33261E-01 6.70685E-01 3.22906E+00
 -1       368 3.92857E-01 9.82425E-01 7.50305E-01
 -1       369 1.63910E-01-1.10849E-03 1.90653E-01
 -1       370 1.00000E+00 5.85957E-01 2.19330E+00
 -1       371 8.21992E-01 3.28857E-01 2.10429E+00
 -1       372 8.59310E-01 8.28353E-01 3.81717E-01
 -1       373 2.05755E-01 1.16285E-01 1.51982E+00
 -1       374 6.35894E-01 8.41363E-01 2.99203E-01
 -1       375 3.75410E-01 7.87703E-01 1.18098E+00
 -1       376 4.79963E-01 6.42766E-01 2.13291E+00
 -1       377 4.93998E-01 2.56902E-01 1.42341E+00
 -1       378 6.95800E-01 2.37493E-01 8.75443E-01
 -1       379 1.64446E-01 1.62677E-01 4.06172E-01
 -1       380 4.01546E-01 8.52695E-02 2.83360E+00
 -1       381 7.56980E-01 6.50054E-01 6.67155E-01
 -1       382 6.44219E-01 7.84331E-01 9.29080E-01
 -1       383 8.29452E-01 5.47743E-01 4.19892E-01
 -1       384 7.24910E-01 5.69673E-01 1.13657E+00
 -1       385 8.78676E-01 1.11590E-01 3.36470E-01
 -1       386 5.14360E-01 1.31807E-01 1.11854E+00
 -1       387 2.54449E-01 3.98543E-01 8.12791E-01
 -1       388 2.93945E-01 7.69878E-01 4.54271E-01
 -1       389 5.36686E-01 4.59468E-01 1.11823E-01
 -1       390 7.65467E-01 5.85158E-01 2.34239E+00
 -1       391 8.82842E-01 1.44017E-01 1.35100E-01
 -1       392 7.44283E-01 5.10470E-01 2.97988E+00
 -1       393 2.23666E-01 7.45266E-01 1.43023E+00
 -1       394 1.88080E-01 6.38724E-01 2.05292E-01
 -1       395 5.05194E-01 4.21712E-01 3.18366E-01
 -1       396 8.40701E-01 7.80136E-01 6.71360E-01
 -1       397 4.09944E-01 3.88943E-01 9.49784E-01
 -1       398 7.75944E-01 1.12128E-01 1.35376E+00
 -1       399 3.21112E-01 5.72536E-01 1.58816E+00
 -1       400 7.95300E-01 3.70868E-01 1.39834E+00
 -1       401 7.16740E-01 8.32630E-02 4.23598E-01
 -1       402 4.21448E-01 3.38827E-01 5.12840E-01
 -1       403 8.76032E-01 3.28444E-02 2.29237E+00
 -1       404 1.58936E-01 4.16523E-01 2.20192E+00
 -1       405 2.82081E-01 9.42563E-01 1.35401E+00
 -1       406 6.30416E-01-7.75332E-02 1.57268E+00
 -1       407 7.24322E-01-1.35007E-02 6.57974E-01
 -1       408 1.00000E+00 4.93184E-01 2.68758E+00
 -1       409 1.81201E-01 5.57395E-01 3.73670E+00
 -1       410 1.00000E+00 2.89468E-01 2.10783E-01
 -1       411 3.65031E-01-1.47458E-01 2.16793E+00
 -1       412 1.00000E+00 4.79107E-01 3.97645E-01
 -1       413 2.19202E-01 6.66964E-01 3.24704E+00
 -1       414 1.00000E+00 3.67776E-01 6.34099E-01
 -1       415 7.86063E-01-1.03366E-01 1.81541E+00
 -1       416 1.00000E+00 1.80645E-01 2.24502E+00
 -1       417 0.00000E+00 6.60133E-01 2.13604E-01
 -1       418 2.09878E-01-1.16561E-02 6.11583E-01
 -1       419 2.90411E-01-6.18971E-02 1.40549E+00
 -1       420 4.92646E-01 9.20223E-01 1.59522E+00
 -1       421 1.00000E+00 8.33192E-01 1.79123E-01
 -1       422 5.88390E-01-5.98484E-03 4.39070E-01
 -1       423 8.94500E-01-2.99795E-01 3.08262E+00
 -1       424 1.00000E+00-2.78965E-01 4.35510E+00
 -1       425 6.34599E-01 5.17144E-01 8.51218E-01
 -1       426 3.66414E-01 5.75867E-01 6.74180E-01
 -1       427 2.80357E-01 1.39858E-01 5.72106E-01
 -1       428 2.42027E-01 1.07114E-01 2.30555E+00
 -1       429 4.77139E-01 2.22609E-01 7.77614E-01
 -1       430 5.94817E-01 5.25658E-01 3.20357E+00
 -1       431 1.00000E+00 6.44907E-01 1.90989E+00
 -1       432 0.00000E+00 1.76127E-01 2.35853E+00
 -1       433 5.62907E-01-1.43728E-03 2.16681E-01
 -1       434 9.41421E-01 7.20084E-02 6.75501E-02
 -1       435 1.00000E+00-3.49810E-04 1.08416E-01
 -1       436 8.88754E-01 0.00000E+00 0.00000E+00
 -1       437 1.00000E+00 1.35472E-01 0.00000E+00
 -1       438 8.19550E-02-2.68324E-04 9.53281E-02
 -1       439 0.00000E+00 9.65228E-02 1.05866E-01
 -1       440 0.00000E+00 1.38394E-01 0.00000E+00
 -1       441 1.39843E-01 0.00000E+00 0.00000E+00
 -1       442 0.00000E+00-1.19607E-03 1.97926E-01
 -1       443 1.00000E+00 9.16596E-01 8.95615E-02
 -1       444 1.00000E+00 9.99744E-01 9.32096E-02
 -1       445 8.95702E-01 8.95806E-01 0.00000E+00
 -1       446 8.84934E-01 1.00000E+00 0.00000E+00
 -1       447 1.00000E+00 8.83463E-01 0.00000E+00
 -1       448 0.00000E+00 9.99658E-01 1.07268E-01
 -1       449 0.00000E+00 9.27350E-01 1.04162E-01
 -1       450 0.00000E+00 8.88042E-01 0.00000E+00
 -1       451 1.35480E-01 1.00000E+00 0.00000E+00
 -1       452 1.00000E+00-1.30016E+00 7.33562E+00
 -1       453 7.33560E-01-1.32234E+00 7.38344E+00
 -1       454 5.00000E-01-2.14359E+00 8.00000E+00
 -1       455 1.00000E+00-1.62083E+00 7.01702E+00
 -1       456 5.00000E-01-1.62083E+00 7.01702E+00
 -1       457 1.00000E+00-1.64359E+00 8.00000E+00
 -1       458 1.00000E+00-7.85155E-01 7.34338E+00
 -1       459 7.33560E-01-8.09458E-01 7.39016E+00
 -1       460 5.00000E-01-1.64359E+00 8.00000E+00
 -1       461 5.00000E-01-1.14359E+00 8.00000E+00
 -1       462 0.00000E+00-1.30267E+00 7.34108E+00
 -1       463 2.33560E-01-1.32234E+00 7.38344E+00
 -1       464 0.00000E+00-1.64359E+00 8.00000E+00
 -1       465 0.00000E+00-1.62083E+00 7.01702E+00
 -1       466 0.00000E+00-7.87921E-01 7.34873E+00
 -1       467 2.33560E-01-8.09458E-01 7.39016E+00
 -1       468 1.00000E+00 2.75764E-02 2.12251E+00
 -1       469 8.93032E-01-1.14165E-01 1.90774E+00
 -1       470 9.38016E-01-4.63238E-02 2.14618E+00
 -1       471 8.75483E-01-1.38389E-01 2.10031E+00
 -1       472 1.00000E+00-1.07616E-01 1.85230E+00
 -1       473 8.74728E-01-2.70567E-02 2.00431E+00
 -1       474 1.00000E+00-1.52192E-01 2.20236E+00
 -1       475 7.53086E-01-1.25492E-01 2.00000E+00
 -1       476 1.00000E+00 9.55497E-02 1.94011E+00
 -1       477 0.00000E+00 2.53177E-02 2.17926E+00
 -1       478 1.82515E-01-1.36246E-01 2.08400E+00
 -1       479 0.00000E+00 8.74375E-02 2.07475E+00
 -1       480 0.00000E+00-1.07400E-01 1.85045E+00
 -1       481 1.25587E-01-1.08327E-01 1.85840E+00
 -1       482 0.00000E+00-3.74515E-03 1.83420E+00
 -1       483 1.01580E-01 9.68554E-03 1.96414E+00
 -1       484 2.53086E-01-1.25492E-01 2.00000E+00
 -1       485 0.00000E+00 1.00305E-01 1.92971E+00
 -1       486 0.00000E+00-2.84935E-01 3.00610E+00
 -1       487 1.00000E+00-3.93516E-01 4.17755E+00
 -1       488 1.00000E+00-4.33060E-01 3.69670E+00
 -1       489 1.00000E+00-2.23123E-01 3.91020E+00
 -1       490 8.09580E-01-2.20146E-01 4.28769E+00
 -1       491 1.00000E+00-8.04909E-01 5.01088E+00
 -1       492 8.37907E-01-1.75613E-01 3.85349E+00
 -1       493 5.00000E-01-5.08067E-01 4.00000E+00
 -1       494 0.00000E+00-1.65970E-01 3.17926E+00
 -1       495 5.00000E-01-3.93516E-01 4.17755E+00
 -1       496 4.47250E-01-3.97326E-01 3.54281E+00
 -1       497 1.82515E-01-3.01096E-01 3.08922E+00
 -1       498 9.06006E-02 2.46640E-02 3.86835E+00
 -1       499 2.00773E-01-2.11399E-01 3.41680E+00
 -1       500 3.95771E-01-3.59017E-01 3.36979E+00
 -1       501 3.15763E-01-3.18408E-01 3.17577E+00
 -1       502 5.00000E-01-4.33060E-01 3.69670E+00
 -1       503 0.00000E+00-2.05769E-01 4.64991E+00
 -1       504 0.00000E+00-5.38256E-02 4.17001E+00
 -1       505 1.73757E-01-5.44854E-02 4.17235E+00
 -1       506 0.00000E+00-3.41309E-03 3.70293E+00
 -1       507 3.09580E-01-2.20146E-01 4.28769E+00
 -1       508 1.86120E-01-4.32172E-02 3.69723E+00
 -1       509 0.00000E+00-1.20853E-01 4.39494E+00
 -1       510 0.00000E+00-3.76140E-02 3.47541E+00
 -1       511 3.37907E-01-1.75613E-01 3.85349E+00
 -1       512 0.00000E+00-8.06700E-03 4.00000E+00
 -1       513 1.00000E+00-7.23282E-01 5.17755E+00
 -1       514 7.50879E-01-5.77915E-01 5.76755E+00
 -1       515 1.00000E+00-5.88463E-01 5.35043E+00
 -1       516 1.00000E+00-5.38170E-01 5.65739E+00
 -1       517 8.09580E-01-5.49912E-01 5.28769E+00
 -1       518 1.00000E+00-8.12164E-01 6.33562E+00
 -1       519 7.33560E-01-8.34342E-01 6.38344E+00
 -1       520 1.00000E+00-6.67602E-01 6.00000E+00
 -1       521 5.00000E-01-7.23282E-01 5.17755E+00
 -1       522 2.50879E-01-5.77915E-01 5.76755E+00
 -1       523 0.00000E+00-5.35536E-01 5.64991E+00
 -1       524 3.09580E-01-5.49912E-01 5.28769E+00
 -1       525 0.00000E+00-8.14679E-01 6.34108E+00
 -1       526 2.33560E-01-8.34342E-01 6.38344E+00
 -1       527 5.00000E-01-6.67602E-01 6.00000E+00
 -1       528 0.00000E+00-6.67602E-01 6.00000E+00
 -1       529 1.60645E-01 7.38925E-01 1.94264E+00
 -1       530 0.00000E+00 8.92447E-01 1.85176E+00
 -1       531 1.40973E-01 8.55090E-01 2.14916E+00
 -1       532 0.00000E+00 8.16436E-01 1.84392E+00
 -1       533 1.08198E-01 8.94293E-01 1.83582E+00
 -1       534 6.19765E-02 8.08614E-01 1.84732E+00
 -1       535 8.94956E-02 7.62377E-01 2.09193E+00
 -1       536 0.00000E+00 7.38212E-01 1.97626E+00
 -1       537 0.00000E+00 8.43647E-01 2.23217E+00
 -1       538 2.56206E-01 8.74508E-01 2.00000E+00
 -1       539 9.06006E-02 5.25203E-01 3.86848E+00
 -1       540 0.00000E+00 5.58270E-01 3.73305E+00
 -1       541 0.00000E+00 4.47159E-01 4.17028E+00
 -1       542 1.73757E-01 4.46526E-01 4.17263E+00
 -1       543 0.00000E+00 4.96587E-01 3.70293E+00
 -1       544 2.54132E-01 4.91933E-01 4.00000E+00
 -1       545 3.37907E-01 3.24387E-01 3.85349E+00
 -1       546 2.50879E-01-7.61988E-02 5.76821E+00
 -1       547 0.00000E+00-3.16191E-02 5.65139E+00
 -1       548 0.00000E+00-3.10454E-01 6.34291E+00
 -1       549 2.33560E-01-3.29016E-01 6.38576E+00
 -1       550 5.00000E-01-1.67603E-01 6.00000E+00
 -1       551 1.00000E+00 7.59708E-01 1.95494E+00
 -1       552 1.00000E+00 7.30233E-01 2.09665E+00
 -1       553 1.00000E+00 8.94552E-01 1.83357E+00
 -1       554 8.51316E-01 8.88664E-01 1.88400E+00
 -1       555 8.14366E-01 8.51593E-01 2.17488E+00
 -1       556 9.11395E-01 8.04057E-01 1.85335E+00
 -1       557 1.00000E+00 8.43449E-01 2.23357E+00
 -1       558 8.50756E-01 7.22574E-01 1.96900E+00
 -1       559 7.56206E-01 8.74508E-01 2.00000E+00
 -1       560 1.00000E+00 5.59460E-01 3.72809E+00
 -1       561 1.00000E+00 2.76877E-01 3.91020E+00
 -1       562 8.54962E-01 5.55197E-01 3.74585E+00
 -1       563 1.00000E+00 4.50060E-01 4.15949E+00
 -1       564 9.02369E-01 4.20414E-01 3.95543E+00
 -1       565 1.00000E+00 3.97498E-01 3.78095E+00
 -1       566 7.54132E-01 4.91933E-01 4.00000E+00
 -1       567 7.50879E-01-7.61988E-02 5.76821E+00
 -1       568 1.00000E+00-3.44204E-02 5.65881E+00
 -1       569 1.00000E+00-3.08072E-01 6.33738E+00
 -1       570 7.33560E-01-3.29016E-01 6.38576E+00
 -1       571 8.37907E-01-6.10620E-02 4.03104E+00
 -1       572 7.85157E-01-7.14772E-02 3.39480E+00
 -1       573 4.28507E-01 3.57118E-01 3.72184E+00
 -1       574 5.38680E-01 1.21055E-01 3.27029E+00
 -1       575 8.37907E-01-1.03495E-01 3.54950E+00
 -1       576 8.37907E-01 1.04448E-01 4.03440E+00
 -1       577 8.37907E-01 2.65438E-01 3.46558E+00
 -1       578 8.37907E-01 1.09331E-01 3.76369E+00
 -1       579 6.92869E-01 3.85628E-01 3.59885E+00
 -1       580 5.11664E-01 2.77968E-01 4.02584E+00
 -1       581 3.37907E-01 3.29041E-01 3.55641E+00
 -1       582 8.37907E-01 1.04869E-01 3.49485E+00
 -1       583 6.47487E-01 1.12308E-01 4.14117E+00
 -1       584 5.24027E-01 2.89237E-01 3.55072E+00
 -1       585 7.21813E-01 1.18518E-01 3.34373E+00
 -1       586 7.40276E-01 2.52868E-01 3.80891E+00
 -1       587 8.37907E-01 2.29952E-01 3.63443E+00
 -1       588 5.92038E-01 3.24387E-01 3.85349E+00
 -1       589 2.33560E-01-4.81357E-01 6.72455E+00
 -1       590 7.33560E-01-4.78824E-01 6.71909E+00
 -1       591 1.00000E+00 1.36574E-01 4.71959E+00
 -1       592 1.00000E+00 1.89600E-01 5.02746E+00
 -1       593 1.00000E+00 1.67265E-01 4.55008E+00
 -1       594 7.76345E-01 2.76157E-01 4.75861E+00
 -1       595 1.00000E+00 3.45946E-01 4.52885E+00
 -1       596 8.09580E-01 1.75125E-01 4.65685E+00
 -1       597 3.19640E-01 9.55012E-01 1.19866E+00
 -1       598 5.00709E-01 8.75140E-01 9.86137E-01
 -1       599 3.66305E-01 8.76827E-01 1.11209E+00
 -1       600 3.75028E-01 9.74860E-01 8.96787E-01
 -1       601 1.78600E-01 9.62213E-01 1.09879E+00
 -1       602 4.64169E-01 9.59040E-01 1.14387E+00
 -1       603 4.30526E-01 8.75730E-01 8.85452E-01
 -1       604 5.09328E-01 9.69567E-01 9.86389E-01
 -1       605 2.72220E-01 9.70304E-01 9.74403E-01
 -1       606 3.46656E-01 8.14426E-01 1.00004E+00
 -1       607 1.00000E+00 4.80749E-01 1.89505E+00
 -1       608 1.00000E+00 2.48618E-01 2.06262E+00
 -1       609 9.10996E-01 3.22724E-01 1.99225E+00
 -1       610 1.00000E+00 4.51274E-01 2.03676E+00
 -1       611 1.00000E+00 1.12748E-01 1.79233E+00
 -1       612 1.00000E+00 3.08939E-01 1.70640E+00
 -1       613 1.00000E+00 4.83342E-01 1.74952E+00
 -1       614 8.84657E-01 2.93689E-01 1.84309E+00
 -1       615 9.00010E-01 4.02841E-01 1.75279E+00
 -1       616 8.74728E-01 1.93985E-01 1.94442E+00
 -1       617 8.50756E-01 4.43616E-01 1.90911E+00
 -1       618 5.68966E-01 5.30502E-01 5.59117E-02
 -1       619 6.96324E-01 6.96574E-01 0.00000E+00
 -1       620 5.74093E-01 6.17728E-01 1.13207E-01
 -1       621 6.89022E-01 6.87309E-01 8.93743E-02
 -1       622 4.43085E-01 5.72417E-01 0.00000E+00
 -1       623 5.75372E-01 6.96845E-01 0.00000E+00
 -1       624 6.95605E-01 5.76699E-01 0.00000E+00
 -1       625 5.85218E-01 4.54437E-01 0.00000E+00
 -1       626 3.44732E-01 5.25203E-01 3.86848E+00
 -1       627 4.33547E-01 5.56819E-01 3.73910E+00
 -1       628 6.09094E-01 5.55197E-01 3.74585E+00
 -1       629 7.54132E-01 4.50060E-01 4.15949E+00
 -1       630 4.27888E-01 4.46526E-01 4.17263E+00
 -1       631 4.40252E-01 4.56783E-01 3.69723E+00
 -1       632 6.56500E-01 4.20414E-01 3.95543E+00
 -1       633 5.50478E-01-3.49326E-04 1.08343E-01
 -1       634 4.09609E-01 1.37376E-01 0.00000E+00
 -1       635 5.72758E-01 7.28401E-02 1.03113E-01
 -1       636 4.43653E-01 1.40624E-01 1.00320E-01
 -1       637 6.57778E-01 0.00000E+00 0.00000E+00
 -1       638 5.53620E-01 1.53669E-01 0.00000E+00
 -1       639 4.08867E-01 0.00000E+00 0.00000E+00
 -1       640 1.27225E-01 3.78660E-01 8.48908E-01
 -1       641 1.29366E-01 1.67099E-01 8.85885E-01
 -1       642 0.00000E+00 4.50389E-01 7.71334E-01
 -1       643 0.00000E+00 2.53978E-01 7.74135E-01
 -1       644 0.00000E+00 2.66193E-01 1.02367E+00
 -1       645 0.00000E+00 4.53504E-01 1.01901E+00
 -1       646 1.57186E-01 3.37438E-01 1.04292E+00
 -1       647 6.16060E-02 4.46509E-01 1.03855E+00
 -1       648 0.00000E+00 5.47137E-01 8.89699E-01
 -1       649 1.68056E-01 5.10839E-01 9.20953E-01
 -1       650 0.00000E+00 1.69147E-01 8.47382E-01
 -1       651 0.00000E+00 5.97890E-01 1.06802E-01
 -1       652 9.40401E-02 5.87185E-01 1.02646E-01
 -1       653 1.40584E-01 4.05199E-01 0.00000E+00
 -1       654 0.00000E+00 4.89192E-01 1.05762E-01
 -1       655 1.42462E-01 5.39472E-01 0.00000E+00
 -1       656 0.00000E+00 4.06217E-01 0.00000E+00
 -1       657 0.00000E+00 6.55866E-01 0.00000E+00
 -1       658 9.47250E-01-2.78770E-01 2.97376E+00
 -1       659 8.95771E-01-2.46735E-01 2.79947E+00
 -1       660 1.00000E+00-9.84795E-02 2.73645E+00
 -1       661 1.00000E+00-3.01084E-02 2.88571E+00
 -1       662 1.00000E+00-2.18318E-01 2.63485E+00
 -1       663 1.00000E+00-3.08959E-01 3.12884E+00
 -1       664 9.16285E-01-2.26425E-01 2.68288E+00
 -1       665 1.00000E+00-1.02802E-01 3.07374E+00
 -1       666 0.00000E+00 3.04483E-01 2.65468E+00
 -1       667 2.00773E-01 2.59054E-01 2.89221E+00
 -1       668 0.00000E+00 4.56930E-01 2.79608E+00
 -1       669 0.00000E+00 5.01072E-01 3.07242E+00
 -1       670 1.55837E-01 4.70809E-01 2.91750E+00
 -1       671 0.00000E+00 3.75586E-01 2.69361E+00
 -1       672 0.00000E+00 4.67040E-01 3.17834E+00
 -1       673 1.86120E-01 4.27236E-01 3.17264E+00
 -1       674 0.00000E+00 5.77012E-01 2.96241E+00
 -1       675 8.62161E-01-1.93526E-02 7.87189E-01
 -1       676 8.47900E-01 1.05620E-01 8.95897E-01
 -1       677 1.00000E+00-3.44215E-02 1.04886E+00
 -1       678 1.00000E+00 3.81300E-02 9.84470E-01
 -1       679 1.00000E+00 1.01408E-01 9.06417E-01
 -1       680 1.00000E+00-1.97421E-02 7.95042E-01
 -1       681 8.49630E-01-3.56193E-02 1.06690E+00
 -1       682 9.23328E-01 5.31649E-02 7.98069E-01
 -1       683 8.13158E-01-2.60734E-02 9.13237E-01
 -1       684 5.02529E-01 8.98638E-01 1.79776E+00
 -1       685 4.96187E-01 7.58637E-01 2.06646E+00
 -1       686 6.07522E-01 8.88664E-01 1.88400E+00
 -1       687 3.97179E-01 8.55090E-01 2.14916E+00
 -1       688 5.70572E-01 8.51593E-01 2.17488E+00
 -1       689 3.64404E-01 8.94293E-01 1.83582E+00
 -1       690 5.27129E-01 7.77298E-01 1.83961E+00
 -1       691 6.06962E-01 7.22574E-01 1.96900E+00
 -1       692 4.14040E-01 7.22785E-01 1.94327E+00
 -1       693 1.09601E-01 6.94666E-01 3.11064E+00
 -1       694 1.25190E-01 7.44965E-01 2.84569E+00
 -1       695 0.00000E+00 6.01103E-01 2.80767E+00
 -1       696 0.00000E+00 6.45245E-01 3.08401E+00
 -1       697 1.55837E-01 6.14981E-01 2.92909E+00
 -1       698 2.55342E-01 7.10113E-01 3.03182E+00
 -1       699 0.00000E+00 6.72572E-01 3.21991E+00
 -1       700 0.00000E+00 7.67330E-01 2.71929E+00
 -1       701 1.00000E+00 6.08470E-01 2.82399E+00
 -1       702 8.72142E-01 6.17113E-01 2.97014E+00
 -1       703 9.16630E-01 6.97794E-01 3.09485E+00
 -1       704 8.41537E-01 7.49228E-01 2.82205E+00
 -1       705 1.00000E+00 4.61020E-01 2.93353E+00
 -1       706 1.00000E+00 6.74991E-01 3.20813E+00
 -1       707 1.00000E+00 5.48895E-01 3.09229E+00
 -1       708 7.55342E-01 7.11425E-01 3.02503E+00
 -1       709 1.00000E+00 7.68265E-01 2.71387E+00
 -1       710 7.94678E-02 3.71312E-01 2.03067E+00
 -1       711 0.00000E+00 3.13234E-01 2.00446E+00
 -1       712 0.00000E+00 5.42232E-01 1.77363E+00
 -1       713 0.00000E+00 2.22051E-01 1.76391E+00
 -1       714 1.23481E-01 3.52213E-01 1.74778E+00
 -1       715 1.01580E-01 2.35482E-01 1.89385E+00
 -1       716 0.00000E+00 4.64009E-01 1.90596E+00
 -1       717 0.00000E+00 3.51543E-01 1.64454E+00
 -1       718 1.57834E-01 4.48582E-01 1.87298E+00
 -1       719 1.04939E-01-1.57605E-02 7.10674E-01
 -1       720 0.00000E+00-3.00453E-02 9.80114E-01
 -1       721 1.29366E-01-2.24831E-02 8.48243E-01
 -1       722 0.00000E+00 6.43493E-02 7.36491E-01
 -1       723 0.00000E+00 7.65643E-02 9.86029E-01
 -1       724 0.00000E+00-1.13233E-02 6.02831E-01
 -1       725 1.00000E+00 4.62706E-01 3.50848E+00
 -1       726 1.00000E+00 3.38549E-01 3.39304E+00
 -1       727 1.00000E+00 1.82442E-01 3.69115E+00
 -1       728 8.54962E-01 4.58739E-01 3.52631E+00
 -1       729 1.00000E+00 1.77980E-01 3.42231E+00
 -1       730 9.02369E-01 3.25979E-01 3.73637E+00
 -1       731 0.00000E+00 9.81124E-01 7.77461E-01
 -1       732 8.47337E-02 9.79838E-01 8.03415E-01
 -1       733 0.00000E+00 9.66958E-01 1.02768E+00
 -1       734 7.39488E-02 8.70639E-01 1.03692E+00
 -1       735 8.56670E-02 8.78572E-01 7.93749E-01
 -1       736 0.00000E+00 8.55063E-01 8.97647E-01
 -1       737 9.36200E-02 9.74495E-01 9.03258E-01
 -1       738 4.01505E-01 8.87167E-01 0.00000E+00
 -1       739 4.13570E-01 9.99505E-01 1.28351E-01
 -1       740 5.81082E-01 9.99718E-01 9.75866E-02
 -1       741 4.47887E-01 9.14314E-01 9.96297E-02