    1C
    1UUSER                                                              
    1UDATE              22.april.2025                                   
    1UTIME              15:46:01                                        
    1UHOST                                                              
    1UPGM               CalculiX                                        
    1UVERSION           Version DEVELOPMENT                             
    1UCOMPILETIME       Mon Apr 21 14:04:07 CEST 2025                    
    1UDIR                                                               
    1UDBN                                                               
    1UMAT    1EL                                                        
    2C                           188                                     1
 -1         1 1.00000E+00 0.00000E+00 0.00000E+00
 -1         2 0.00000E+00 0.00000E+00 0.00000E+00
 -1         3 1.00000E+00 1.00000E+00 0.00000E+00
 -1         4 5.00000E-01 0.00000E+00 0.00000E+00
 -1         5 5.00000E-01 5.00000E-01 0.00000E+00
 -1         6 1.00000E+00 5.00000E-01 0.00000E+00
 -1         7 0.00000E+00 1.00000E+00 0.00000E+00
 -1         8 0.00000E+00 5.00000E-01 0.00000E+00
 -1         9 5.00000E-01 1.00000E+00 0.00000E+00
 -1       165 0.00000E+00 1.39058E-01 2.86646E+00
 -1       166 5.27680E-01-2.46551E-01 2.79844E+00
 -1       167 5.24015E-01-6.60165E-01 4.54949E+00
 -1       168 0.00000E+00-2.53439E-01 2.83687E+00
 -1       169 5.13249E-01 7.34199E-01 2.90451E+00
 -1       170 1.00000E+00-2.56429E-01 2.85338E+00
 -1       171 0.00000E+00 7.22510E-01 2.96700E+00
 -1       172 1.00000E+00 7.35886E-01 2.89537E+00
 -1       173 2.25340E-01 2.52695E-01 2.45067E+00
 -1       174 5.36123E-01 3.93443E-01 1.94235E+00
 -1       175 3.46551E-01-1.78654E-01 2.38529E+00
 -1       176 6.82645E-01-1.82126E-01 2.40821E+00
 -1       177 6.26879E-01-3.59548E-01 3.37225E+00
 -1       178 1.00000E+00 2.20103E-01 2.40708E+00
 -1       179 5.06034E-01-1.25492E-01 2.00000E+00
 -1       180 1.00000E+00 7.37798E-02 3.39989E+00
 -1       181 7.53017E-01-3.14044E-02 1.00197E+00
 -1       182 7.68062E-01 1.96721E-01 9.71177E-01
 -1       183 1.00000E+00-3.14044E-02 1.00197E+00
 -1       184 1.00000E+00 4.37254E-01 1.00000E+00
 -1       185 2.53017E-01-3.14044E-02 1.00197E+00
 -1       186 2.68061E-01 1.96721E-01 9.71177E-01
 -1       187 0.00000E+00 4.37254E-01 1.00000E+00
 -1       188 0.00000E+00-3.14044E-02 1.00197E+00
 -1       189 7.68062E-01 6.96721E-01 9.71177E-01
 -1       190 1.00000E+00 9.68595E-01 1.00197E+00
 -1       191 2.68061E-01 6.96721E-01 9.71177E-01
 -1       192 5.00000E-01 9.68595E-01 1.00197E+00
 -1       193 0.00000E+00 9.68595E-01 1.00197E+00
 -1       194 5.00000E-01-2.14359E+00 8.00000E+00
 -1       195 1.00000E+00-1.62083E+00 7.01702E+00
 -1       196 5.00000E-01-1.62083E+00 7.01702E+00
 -1       197 1.00000E+00-1.64359E+00 8.00000E+00
 -1       198 5.00000E-01-1.64359E+00 8.00000E+00
 -1       199 1.00000E+00-1.15559E+00 7.00000E+00
 -1       200 1.00000E+00-6.20823E-01 7.01702E+00
 -1       201 5.00000E-01-6.20823E-01 7.01702E+00
 -1       202 5.00000E-01-1.15559E+00 7.00000E+00
 -1       203 5.00000E-01-1.14359E+00 8.00000E+00
 -1       204 0.00000E+00-1.64359E+00 8.00000E+00
 -1       205 0.00000E+00-1.62083E+00 7.01702E+00
 -1       206 0.00000E+00-6.20823E-01 7.01702E+00
 -1       207 0.00000E+00-1.15559E+00 7.00000E+00
 -1       208 7.53017E-01-1.25492E-01 2.00000E+00
 -1       209 1.00000E+00 4.73055E-02 2.20354E+00
 -1       210 8.41322E-01-1.52460E-01 2.20429E+00
 -1       211 7.68062E-01 1.33975E-01 1.97118E+00
 -1       212 1.00000E+00-1.85088E-01 2.42759E+00
 -1       213 1.00000E+00 3.74508E-01 2.00000E+00
 -1       214 2.53017E-01-1.25492E-01 2.00000E+00
 -1       215 1.73275E-01-1.50871E-01 2.19281E+00
 -1       216 2.68061E-01 1.33975E-01 1.97118E+00
 -1       217 1.12670E-01 6.36015E-02 2.22533E+00
 -1       218 0.00000E+00-1.83818E-01 2.41930E+00
 -1       219 0.00000E+00 6.78286E-03 2.43323E+00
 -1       220 0.00000E+00 3.74508E-01 2.00000E+00
 -1       221 1.00000E+00-2.17144E-01 3.69994E+00
 -1       222 8.13439E-01-4.30728E-01 3.68686E+00
 -1       223 1.00000E+00-3.71896E-01 3.42896E+00
 -1       224 7.62007E-01-5.81555E-01 4.27545E+00
 -1       225 1.00000E+00-3.37835E-01 5.00000E+00
 -1       226 1.00000E+00-8.06700E-03 4.00000E+00
 -1       227 1.00000E+00-8.04909E-01 5.01088E+00
 -1       228 7.49936E-01-2.58115E-01 3.99993E+00
 -1       229 5.00000E-01-5.08067E-01 4.00000E+00
 -1       230 3.13439E-01-4.30728E-01 3.68686E+00
 -1       231 0.00000E+00-3.70099E-01 3.42077E+00
 -1       232 2.62007E-01-5.81555E-01 4.27545E+00
 -1       233 0.00000E+00-1.84505E-01 3.43323E+00
 -1       234 0.00000E+00-3.37835E-01 5.00000E+00
 -1       235 0.00000E+00-8.04909E-01 5.01088E+00
 -1       236 2.49935E-01-2.58115E-01 3.99993E+00
 -1       237 0.00000E+00-8.06700E-03 4.00000E+00
 -1       238 7.62007E-01-8.96772E-01 5.28074E+00
 -1       239 5.00000E-01-1.16760E+00 6.00000E+00
 -1       240 1.00000E+00-6.67602E-01 6.00000E+00
 -1       241 2.62007E-01-8.96772E-01 5.28074E+00
 -1       242 5.00000E-01-6.67602E-01 6.00000E+00
 -1       243 0.00000E+00-6.67602E-01 6.00000E+00
 -1       244 2.68061E-01 6.33975E-01 1.97118E+00
 -1       245 1.12670E-01 5.63601E-01 2.22533E+00
 -1       246 0.00000E+00 8.06040E-01 2.48469E+00
 -1       247 2.56625E-01 8.10947E-01 2.45328E+00
 -1       248 0.00000E+00 5.06783E-01 2.43323E+00
 -1       249 5.00000E-01 8.74508E-01 2.00000E+00
 -1       250 0.00000E+00 6.15610E-01 3.48538E+00
 -1       251 2.56625E-01 6.22509E-01 3.45434E+00
 -1       252 2.62007E-01-8.41158E-02 4.27474E+00
 -1       253 0.00000E+00 3.15495E-01 3.43323E+00
 -1       254 5.00000E-01 1.95091E-01 5.01088E+00
 -1       255 0.00000E+00 1.95091E-01 5.01088E+00
 -1       256 5.00000E-01 4.91933E-01 4.00000E+00
 -1       257 2.49935E-01 2.41885E-01 3.99993E+00
 -1       258 2.62007E-01-4.13884E-01 5.27474E+00
 -1       259 5.00000E-01-1.67603E-01 6.00000E+00
 -1       260 2.49935E-01-8.78825E-02 4.99994E+00
 -1       261 1.00000E+00 5.47305E-01 2.20354E+00
 -1       262 7.68062E-01 6.33975E-01 1.97118E+00
 -1       263 1.00000E+00 8.11659E-01 2.44869E+00
 -1       264 7.56625E-01 8.10947E-01 2.45328E+00
 -1       265 1.00000E+00 2.82856E-01 3.69994E+00
 -1       266 1.00000E+00 6.23512E-01 3.44981E+00
 -1       267 7.56625E-01 6.22509E-01 3.45434E+00
 -1       268 7.62007E-01-8.41158E-02 4.27474E+00
 -1       269 1.00000E+00 1.95091E-01 5.01088E+00
 -1       270 7.49936E-01 2.41885E-01 3.99993E+00
 -1       271 7.62007E-01-4.13884E-01 5.27474E+00
 -1       272 7.49936E-01-8.78825E-02 4.99994E+00
 -1       273 7.49936E-01 3.28089E-02 3.69988E+00
 -1       274 5.63375E-01-1.83855E-01 3.68606E+00
 -1       275 5.06560E-01 3.63018E-01 3.45219E+00
 -1       276 2.49935E-01-1.30801E-01 3.41837E+00
 -1       277 5.11943E-01-3.34163E-01 4.27468E+00
 -1       278 2.49935E-01 6.54478E-02 3.43316E+00
 -1       279 5.00000E-01 1.06419E-01 3.13317E+00
 -1       280 3.13439E-01-1.10245E-01 3.11935E+00
 -1       281 1.73275E-01-1.97982E-02 2.62587E+00
 -1       282 1.12670E-01 1.95876E-01 2.65856E+00
 -1       283 0.00000E+00 4.30784E-01 2.91673E+00
 -1       284 2.56625E-01 4.36628E-01 2.88548E+00
 -1       285 0.00000E+00-5.71908E-02 2.85166E+00
 -1       286 2.63840E-01-5.37468E-02 2.83245E+00
 -1       287 7.63840E-01-8.63858E-02 3.09916E+00
 -1       288 7.63840E-01-1.32242E-02 2.60276E+00
 -1       289 5.77279E-01-3.00434E-01 3.08586E+00
 -1       290 6.05162E-01-2.13115E-01 2.60353E+00
 -1       291 4.37115E-01-2.11231E-01 2.59209E+00
 -1       292 3.76510E-01 3.07178E-03 2.62455E+00
 -1       293 7.63840E-01-2.51466E-01 2.82591E+00
 -1       294 5.20465E-01 2.43824E-01 2.85148E+00
 -1       295 2.63840E-01-2.49984E-01 2.81766E+00
 -1       296 3.13439E-01-3.04217E-01 3.10501E+00
 -1       297 1.73275E-01-2.14409E-01 2.61135E+00
 -1       298 7.56625E-01 4.03989E-01 3.15220E+00
 -1       299 7.56625E-01 4.77151E-01 2.65580E+00
 -1       300 5.24686E-01 5.63821E-01 2.42343E+00
 -1       301 3.69295E-01 4.93447E-01 2.67759E+00
 -1       302 7.56625E-01 7.35043E-01 2.89994E+00
 -1       303 2.56625E-01 7.28385E-01 2.93576E+00
 -1       304 7.56625E-01 2.38885E-01 2.87895E+00
 -1       305 1.00000E+00-9.13247E-02 3.12663E+00
 -1       306 1.00000E+00-1.81631E-02 2.63023E+00
 -1       307 8.13439E-01-3.05851E-01 3.11324E+00
 -1       308 8.41322E-01-2.17687E-01 2.63106E+00
 -1       309 1.00000E+00 2.39728E-01 2.87438E+00
 -1       310 1.12670E-01 4.87602E-01 2.70884E+00
 -1       311 1.00000E+00 4.04833E-01 3.14763E+00
 -1       312 1.00000E+00 4.77995E-01 2.65123E+00
 -1       313 3.65687E-01 6.36015E-02 2.22533E+00
 -1       314 6.12670E-01 2.36399E-01 2.42888E+00
 -1       315 4.53992E-01 3.52842E-02 2.42944E+00
 -1       316 2.85945E-01 3.70204E-02 2.41798E+00
 -1       317 3.80732E-01 3.23069E-01 2.19651E+00
 -1       318 5.21078E-01 1.33975E-01 1.97118E+00
 -1       319 7.68062E-01 3.06773E-01 2.17472E+00
 -1       320 6.09384E-01 1.05658E-01 2.17528E+00
 -1       321 4.26292E-01-1.50871E-01 2.19281E+00
 -1       322 5.14598E-01-1.80386E-01 2.39675E+00
 -1       323 5.94339E-01-1.52460E-01 2.20429E+00
 -1       324 8.41322E-01 1.89882E-02 2.40765E+00
 -1       325 8.13439E-01-1.42884E-01 3.38607E+00
 -1       326 7.53017E-01 4.73055E-02 2.20354E+00
 -1       327 1.00000E+00 8.74508E-01 2.00000E+00
 -1       328 1.00000E+00 4.91933E-01 4.00000E+00
 -1       329 1.00000E+00-1.67603E-01 6.00000E+00
 -1       330 4.99871E-01-8.16205E-03 3.99987E+00
 -1       331 0.00000E+00 8.74508E-01 2.00000E+00
 -1       332 0.00000E+00 4.91933E-01 4.00000E+00
 -1       333 0.00000E+00-1.67603E-01 6.00000E+00
 -1       334 0.00000E+00-1.16760E+00 6.00000E+00
 -1       335 0.00000E+00-1.14359E+00 8.00000E+00
 -1       336 1.00000E+00-1.14359E+00 8.00000E+00
 -1       337 1.00000E+00-1.16760E+00 6.00000E+00
 -1       338 0.00000E+00-2.14359E+00 8.00000E+00
 -1       339 1.00000E+00-1.25492E-01 2.00000E+00
 -1       340 0.00000E+00-5.08067E-01 4.00000E+00
 -1       341 1.00000E+00-5.08067E-01 4.00000E+00
 -1       342 1.00000E+00-2.14359E+00 8.00000E+00
 -1       343 0.00000E+00-1.25492E-01 2.00000E+00
 -3
    3C                            83                                     1
 -1         1    6    0    1
 -2       176       173       166       178       315       292       290       324       314       288
 -1         2    6    0    1
 -2       327         7         3       174       192         9       190       262       191       189
 -1         3    6    0    1
 -2       169       170       172       180       304       309       302       298       305       311
 -1         4    6    0    1
 -2       328       329       330       167       269       272       270       268       271       277
 -1         5    6    0    1
 -2         2         3         7       174         5         9         8       186       189       191
 -1         6    6    0    1
 -2       331       327       169       174       249       264       247       244       262       300
 -1         7    6    0    1
 -2       328       169       172       180       267       302       266       265       298       311
 -1         8    6    0    1
 -2       332       333       330       329       255       260       257       254       259       272
 -1         9    6    0    1
 -2       334       335       336       333       207       203       202       243       206       201
 -1        10    6    0    1
 -2       336       329       337       334       200       240       199       202       242       239
 -1        11    6    0    1
 -2       338       336       334       335       198       202       205       204       203       207
 -1        12    6    0    1
 -2       176       170       339       178       308       212       210       324       306       209
 -1        13    6    0    1
 -2       169       173       174       178       301       317       300       299       314       319
 -1        14    6    0    1
 -2       332       330       165       169       257       278       253       251       275       284
 -1        15    6    0    1
 -2       327       331         7       174       249       193       192       262       244       191
 -1        16    6    0    1
 -2       168       166       165       177       295       286       285       296       289       280
 -1        17    6    0    1
 -2       334       333       329       167       243       259       242       241       258       271
 -1        18    6    0    1
 -2       329       333       334       336       259       243       242       200       201       202
 -1        19    6    0    1
 -2       330       340       341       167       236       229       228       277       232       224
 -1        20    6    0    1
 -2       334       336       342       337       202       197       196       239       199       195
 -1        21    6    0    1
 -2       342       336       334       338       197       202       196       194       198       205
 -1        22    6    0    1
 -2       337       334       329       167       239       242       240       238       241       271
 -1        23    6    0    1
 -2       168       330       340       177       276       236       231       296       274       230
 -1        24    6    0    1
 -2       171       169       165       173       303       284       283       310       301       282
 -1        25    6    0    1
 -2       330       333       332       167       260       255       257       277       258       252
 -1        26    6    0    1
 -2       330       329       333       167       272       259       260       277       271       258
 -1        27    6    0    1
 -2       333       334       340       167       243       235       234       258       241       232
 -1        28    6    0    1
 -2       330       332       340       167       257       237       236       277       252       232
 -1        29    6    0    1
 -2       340       332       330       165       237       257       236       233       253       278
 -1        30    6    0    1
 -2       332       329       330       328       254       272       257       256       269       270
 -1        31    6    0    1
 -2       332       328       330       169       256       270       257       251       267       275
 -1        32    6    0    1
 -2       170       169       166       180       304       294       293       305       298       287
 -1        33    6    0    1
 -2       168       165       330       177       285       278       276       296       280       274
 -1        34    6    0    1
 -2       343       165       168       175       219       285       218       215       281       297
 -1        35    6    0    1
 -2         2         7       331       174         8       193       187       186       191       244
 -1        36    6    0    1
 -2       331       169       171       173       247       303       246       245       301       310
 -1        68    6    0    1
 -2       165       330       340       168       278       236       233       285       276       231
 -1        69    6    0    1
 -2       171       165       331       173       283       248       246       310       282       245
 -1        70    6    0    1
 -2       341       328       330       167       226       270       228       224       268       277
 -1        71    6    0    1
 -2       329       328       341       167       269       226       225       271       268       224
 -1        72    6    0    1
 -2       341       337       329       167       227       240       225       224       238       271
 -1        73    6    0    1
 -2       340       332       333       167       237       255       234       232       252       258
 -1        74    6    0    1
 -2       341       340       330       177       229       236       228       222       230       274
 -1        75    6    0    1
 -2         3         2         1       174         5         4         6       189       186       182
 -1        76    6    0    1
 -2       327         3         1       174       190         6       184       262       189       182
 -1        77    6    0    1
 -2       177       165       330       180       280       278       274       325       279       273
 -1        78    6    0    1
 -2       343       331       165       173       220       248       219       217       245       282
 -1        79    6    0    1
 -2       165       166       169       180       286       294       284       279       287       298
 -1        80    6    0    1
 -2         1       339       174       179       183       211       182       181       208       318
 -1        81    6    0    1
 -2       169       165       332       171       284       253       251       303       283       250
 -1        82    6    0    1
 -2       330       165       169       180       278       284       275       273       279       298
 -1        83    6    0    1
 -2       331       343         2       174       220       188       187       244       216       186
 -1        84    6    0    1
 -2       165       166       168       175       286       295       285       281       291       297
 -1        85    6    0    1
 -2       173       165       343       175       282       219       217       316       281       215
 -1        86    6    0    1
 -2       169       166       165       173       294       286       284       301       292       282
 -1        87    6    0    1
 -2       339       327       174       178       213       262       211       209       261       319
 -1        88    6    0    1
 -2       327       169       174       178       264       300       262       261       299       319
 -1        89    6    0    1
 -2       174       173       343       179       317       217       216       318       313       214
 -1        90    6    0    1
 -2       339       176       178       179       210       324       209       208       323       326
 -1        91    6    0    1
 -2         1       339       327       174       183       213       184       182       211       262
 -1        92    6    0    1
 -2       343       173       175       179       217       316       215       214       313       321
 -1        93    6    0    1
 -2       343       331       173       174       220       245       217       216       244       317
 -1        94    6    0    1
 -2       173       169       166       178       301       294       292       314       299       288
 -1        95    6    0    1
 -2       172       170       169       178       309       304       302       312       306       299
 -1        96    6    0    1
 -2       331       169       173       174       247       301       245       244       300       317
 -1        97    6    0    1
 -2       166       169       170       178       294       304       293       288       299       306
 -1        98    6    0    1
 -2       173       166       165       175       292       286       282       316       291       281
 -1        99    6    0    1
 -2       178       176       174       179       324       320       319       326       323       318
 -1       100    6    0    1
 -2       166       170       176       178       293       308       290       288       306       324
 -1       101    6    0    1
 -2       172       169       327       178       302       264       263       312       299       261
 -1       102    6    0    1
 -2       174         2         1       179       186         4       182       318       185       181
 -1       103    6    0    1
 -2       175       173       166       176       316       292       291       322       315       290
 -1       104    6    0    1
 -2       174       343         2       179       216       188       186       318       214       185
 -1       105    6    0    1
 -2       341       170       177       180       223       307       222       221       305       325
 -1       106    6    0    1
 -2       177       330       341       180       274       228       222       325       273       221
 -1       107    6    0    1
 -2       330       328       341       180       270       226       228       273       265       221
 -1       108    6    0    1
 -2       328       330       169       180       270       275       267       265       273       298
 -1       109    6    0    1
 -2       176       174       173       178       320       317       315       324       319       314
 -1       110    6    0    1
 -2       178       174       339       179       319       211       209       326       318       208
 -1       111    6    0    1
 -2       173       174       176       179       317       320       315       313       318       323
 -1       112    6    0    1
 -2       176       175       173       179       322       316       315       323       321       313
 -1       113    6    0    1
 -2       177       166       165       180       289       286       280       325       287       279
 -1       114    6    0    1
 -2       177       170       166       180       307       293       289       325       305       287
 -3
    1PSTEP                         4           1           1          
  100CL  101 1.000000000         188                     0    1           1
 -4  DISP        4    1
 -5  D1          1    2    1    0
 -5  D2          1    2    2    0
 -5  D3          1    2    3    0
 -5  ALL         1    2    0    0    1ALL
 -1         1 0.00000E+00 0.00000E+00 0.00000E+00
 -1         2 3.03960E-04 0.00000E+00 0.00000E+00
 -1         3 2.54872E-04-4.45243E-05 0.00000E+00
 -1         4 1.52805E-04 6.46582E-05 0.00000E+00
 -1         5 1.52450E-04-2.19124E-05 0.00000E+00
 -1         6 1.28225E-04-8.56028E-05 0.00000E+00
 -1         7 5.27317E-05-4.19861E-05 0.00000E+00
 -1         8 1.77368E-04-8.42380E-05 0.00000E+00
 -1         9 1.53537E-04 1.89026E-05 0.00000E+00
 -1       165 1.87313E-04 6.83215E-03 1.66231E-03
 -1       166 1.39189E-04 6.62260E-03 3.48406E-03
 -1       167 1.42170E-04 1.65649E-02 7.08885E-03
 -1       168 2.64811E-04 6.74833E-03 3.54741E-03
 -1       169 1.49337E-04 7.07914E-03-1.05680E-03
 -1       170 2.61240E-05 6.82381E-03 3.55730E-03
 -1       171 6.56973E-05 7.32970E-03-1.04683E-03
 -1       172 2.31037E-04 6.98578E-03-1.06772E-03
 -1       173 1.64273E-04 5.04268E-03 1.07572E-03
 -1       174 1.44087E-04 3.18334E-03 4.93044E-04
 -1       175 1.86720E-04 4.85527E-03 2.83538E-03
 -1       176 9.84734E-05 4.94479E-03 2.86794E-03
 -1       177 1.19569E-04 9.46490E-03 4.50802E-03
 -1       178 1.05888E-04 4.83080E-03 1.18947E-03
 -1       179 1.44743E-04 3.45721E-03 2.27835E-03
 -1       180 1.20270E-04 9.51869E-03 2.11089E-03
 -1       181 7.40475E-05 8.97995E-04 1.05618E-03
 -1       182 9.95519E-05 7.93492E-04 6.17554E-04
 -1       183-4.87788E-07 8.51484E-04 1.05130E-03
 -1       184 1.19557E-04 7.71119E-04 2.23226E-04
 -1       185 2.22284E-04 8.97734E-04 1.05393E-03
 -1       186 1.91537E-04 7.96815E-04 6.13850E-04
 -1       187 1.77609E-04 7.69813E-04 2.20202E-04
 -1       188 2.98543E-04 8.50068E-04 1.04920E-03
 -1       189 1.67530E-04 7.75185E-04-2.10065E-04
 -1       190 2.51675E-04 8.21422E-04-6.48160E-04
 -1       191 1.32096E-04 7.78351E-04-2.10594E-04
 -1       192 1.46832E-04 8.82658E-04-6.52912E-04
 -1       193 4.39221E-05 8.19420E-04-6.59316E-04
 -1       194 1.31875E-04 4.28468E-02 1.93708E-02
 -1       195 1.21615E-04 3.49419E-02 1.50976E-02
 -1       196 1.38956E-04 3.49487E-02 1.51008E-02
 -1       197 1.34906E-04 4.28445E-02 1.53144E-02
 -1       198 1.30951E-04 4.28412E-02 1.53195E-02
 -1       199 1.31550E-04 3.47992E-02 1.13785E-02
 -1       200 1.53390E-04 3.49213E-02 7.13638E-03
 -1       201 1.39087E-04 3.49375E-02 7.13634E-03
 -1       202 1.39816E-04 3.48090E-02 1.13787E-02
 -1       203 1.32147E-04 4.28400E-02 1.12914E-02
 -1       204 1.29314E-04 4.28365E-02 1.53133E-02
 -1       205 1.54279E-04 3.49497E-02 1.50867E-02
 -1       206 1.30466E-04 3.49301E-02 7.13660E-03
 -1       207 1.46403E-04 3.48034E-02 1.13669E-02
 -1       208 7.63144E-05 3.43991E-03 2.27828E-03
 -1       209 5.78397E-05 4.06861E-03 1.78271E-03
 -1       210 5.47931E-05 4.14425E-03 2.56511E-03
 -1       211 1.03293E-04 3.28739E-03 1.35491E-03
 -1       212 1.59234E-05 4.97432E-03 2.88752E-03
 -1       213 1.23838E-04 3.31909E-03 5.38231E-04
 -1       214 2.15682E-04 3.44049E-03 2.27791E-03
 -1       215 2.35402E-04 4.10387E-03 2.54858E-03
 -1       216 1.83789E-04 3.29170E-03 1.35457E-03
 -1       217 2.11984E-04 4.16960E-03 1.73694E-03
 -1       218 2.76588E-04 4.94104E-03 2.87472E-03
 -1       219 2.33522E-04 4.95883E-03 2.07413E-03
 -1       220 1.68382E-04 3.31874E-03 5.37407E-04
 -1       221 8.53290E-05 1.12114E-02 3.84944E-03
 -1       222 8.50951E-05 1.11924E-02 5.13171E-03
 -1       223 3.92786E-05 9.72683E-03 4.60468E-03
 -1       224 1.02533E-04 1.47723E-02 6.42233E-03
 -1       225 1.26378E-04 1.95751E-02 4.95858E-03
 -1       226 1.32413E-04 1.29795E-02 2.67390E-03
 -1       227 8.03696E-05 1.96849E-02 8.29775E-03
 -1       228 1.23377E-04 1.30258E-02 4.22143E-03
 -1       229 1.46292E-04 1.30669E-02 5.80488E-03
 -1       230 1.83442E-04 1.12060E-02 5.13438E-03
 -1       231 2.53694E-04 9.68386E-03 4.58457E-03
 -1       232 1.85947E-04 1.47756E-02 6.42306E-03
 -1       233 2.19499E-04 9.72337E-03 3.54364E-03
 -1       234 1.62467E-04 1.95766E-02 4.95409E-03
 -1       235 2.07447E-04 1.96859E-02 8.29240E-03
 -1       236 1.69841E-04 1.30263E-02 4.22152E-03
 -1       237 1.63105E-04 1.29807E-02 2.67412E-03
 -1       238 1.16632E-04 2.16153E-02 9.08678E-03
 -1       239 1.43709E-04 2.69842E-02 1.13720E-02
 -1       240 1.34394E-04 2.69587E-02 7.48310E-03
 -1       241 1.67417E-04 2.16173E-02 9.07920E-03
 -1       242 1.42225E-04 2.69700E-02 7.49643E-03
 -1       243 1.48169E-04 2.69511E-02 7.48947E-03
 -1       244 1.29738E-04 3.27161E-03-2.98506E-04
 -1       245 1.22586E-04 4.14833E-03-1.23163E-04
 -1       246 5.80517E-05 5.17488E-03-1.13496E-03
 -1       247 1.02346E-04 5.08771E-03-1.13076E-03
 -1       248 1.23663E-04 4.93362E-03 5.19552E-05
 -1       249 1.46620E-04 3.41401E-03-1.08891E-03
 -1       250 7.68385E-05 1.00024E-02-7.69214E-04
 -1       251 1.13581E-04 9.86850E-03-7.85001E-04
 -1       252 1.53954E-04 1.47374E-02 3.18527E-03
 -1       253 1.32057E-04 9.69794E-03 8.22584E-04
 -1       254 1.45655E-04 1.96781E-02 1.29068E-03
 -1       255 1.02452E-04 1.96517E-02 1.28954E-03
 -1       256 1.49946E-04 1.30270E-02-3.00786E-04
 -1       257 1.38424E-04 1.30055E-02 1.17837E-03
 -1       258 1.51446E-04 2.15424E-02 5.53785E-03
 -1       259 1.40954E-04 2.69672E-02 3.69486E-03
 -1       260 1.40537E-04 1.95882E-02 3.22445E-03
 -1       261 1.72570E-04 4.04431E-03-6.75206E-05
 -1       262 1.64186E-04 3.26691E-03-3.02618E-04
 -1       263 2.37140E-04 5.02700E-03-1.13927E-03
 -1       264 1.94718E-04 5.08606E-03-1.13182E-03
 -1       265 1.68102E-04 1.11897E-02 9.70303E-04
 -1       266 2.22292E-04 9.80740E-03-7.96559E-04
 -1       267 1.86354E-04 9.86691E-03-7.87710E-04
 -1       268 1.39772E-04 1.47354E-02 3.18480E-03
 -1       269 1.89728E-04 1.96447E-02 1.29659E-03
 -1       270 1.59526E-04 1.30054E-02 1.17680E-03
 -1       271 1.34202E-04 2.15432E-02 5.53878E-03
 -1       272 1.50066E-04 1.95882E-02 3.22785E-03
 -1       273 1.37567E-04 1.12247E-02 2.39848E-03
 -1       274 1.39400E-04 1.11725E-02 3.65926E-03
 -1       275 1.48782E-04 9.84571E-03 5.75611E-04
 -1       276 1.79690E-04 9.67168E-03 3.24424E-03
 -1       277 1.45519E-04 1.47564E-02 4.79765E-03
 -1       278 1.61489E-04 9.73433E-03 2.17145E-03
 -1       279 1.47146E-04 8.17609E-03 1.89794E-03
 -1       280 1.75825E-04 8.12172E-03 3.00116E-03
 -1       281 2.00662E-04 5.79578E-03 2.30485E-03
 -1       282 1.75108E-04 5.90700E-03 1.35777E-03
 -1       283 1.25901E-04 7.06355E-03 3.09731E-04
 -1       284 1.38221E-04 6.95237E-03 2.92675E-04
 -1       285 2.25623E-04 6.78392E-03 2.59362E-03
 -1       286 1.84076E-04 6.73250E-03 2.57347E-03
 -1       287 1.08842E-04 8.00976E-03 2.86660E-03
 -1       288 1.02170E-04 5.70478E-03 2.26589E-03
 -1       289 1.29276E-04 7.99138E-03 3.97765E-03
 -1       290 1.19237E-04 5.75798E-03 3.16885E-03
 -1       291 1.61671E-04 5.71017E-03 3.15254E-03
 -1       292 1.66003E-04 5.80654E-03 2.20629E-03
 -1       293 8.24658E-05 6.73412E-03 3.52423E-03
 -1       294 1.46390E-04 6.80531E-03 1.18251E-03
 -1       295 2.02017E-04 6.69940E-03 3.51787E-03
 -1       296 1.89988E-04 8.08134E-03 4.01330E-03
 -1       297 2.26628E-04 5.77034E-03 3.18106E-03
 -1       298 1.59779E-04 8.25666E-03 4.09433E-04
 -1       299 1.59686E-04 5.90902E-03 1.46460E-04
 -1       300 1.48802E-04 4.95298E-03-1.57921E-04
 -1       301 1.39642E-04 6.01585E-03 7.58489E-05
 -1       302 1.90352E-04 7.04468E-03-1.06070E-03
 -1       303 1.07569E-04 7.21717E-03-1.05120E-03
 -1       304 1.37579E-04 6.92067E-03 1.20709E-03
 -1       305 7.39474E-05 8.11169E-03 2.89364E-03
 -1       306 6.36109E-05 5.78504E-03 2.29280E-03
 -1       307 7.50313E-05 8.11003E-03 4.02267E-03
 -1       308 6.01908E-05 5.85327E-03 3.20767E-03
 -1       309 1.28542E-04 6.86174E-03 1.19595E-03
 -1       310 1.26554E-04 6.12658E-03 9.05651E-05
 -1       311 1.72449E-04 8.19738E-03 3.98802E-04
 -1       312 1.70389E-04 5.85038E-03 1.36073E-04
 -1       313 1.69144E-04 4.19894E-03 1.74386E-03
 -1       314 1.38653E-04 4.96956E-03 1.13958E-03
 -1       315 1.54242E-04 4.99422E-03 1.96717E-03
 -1       316 1.81471E-04 4.93799E-03 1.95097E-03
 -1       317 1.51908E-04 4.06914E-03 7.63210E-04
 -1       318 1.42666E-04 3.30526E-03 1.35716E-03
 -1       319 1.30730E-04 3.97675E-03 8.15581E-04
 -1       320 1.29932E-04 4.01102E-03 1.55956E-03
 -1       321 1.66700E-04 4.12771E-03 2.55168E-03
 -1       322 1.42682E-04 4.90618E-03 2.85294E-03