
                        S T E P       1


                                INCREMENT     1


 displacements (vx,vy,vz) for set N1 and time  0.1000000E+01

        54 -2.026844E-04  1.454817E-03 -2.182996E-04
        58 -2.026844E-04  1.454817E-03 -2.182996E-04
