    1C
    1UUSER                                                              
    1UDATE              17.april.2025                                   
    1UTIME              17:36:05                                        
    1UHOST                                                              
    1UPGM               CalculiX                                        
    1UVERSION           Version DEVELOPMENT                             
    1UCOMPILETIME       Thu Apr 17 17:30:54 CEST 2025                    
    1UDIR                                                               
    1UDBN                                                               
    1UMAT    1EL                                                        
    2C                          1805                                     1
 -1        28 0.00000E+00-5.08067E-01 4.00000E+00
 -1        31 1.00000E+00-1.16760E+00 6.00000E+00
 -1        33 5.00000E-01-8.01316E-01 5.00000E+00
 -1        34 0.00000E+00-1.16760E+00 6.00000E+00
 -1        35 5.00000E-01-1.16760E+00 6.00000E+00
 -1        36 0.00000E+00-8.01316E-01 5.00000E+00
 -1       149 4.99871E-01-8.16205E-03 3.99987E+00
 -1       154 2.49935E-01-2.58116E-01 3.99994E+00
 -1       156 2.49935E-01-5.51361E-01 4.99994E+00
 -1       164 7.49935E-01-5.51361E-01 4.99994E+00
 -1       165 4.67120E-01-5.01083E-01 6.76687E+00
 -1       166 1.00000E+00 2.89181E-01 4.71669E+00
 -1       167 4.91936E-01 9.74128E-01 9.09699E-01
 -1       168 1.00000E+00 3.90787E-01 1.89515E+00
 -1       169 6.41701E-01 5.68823E-01 0.00000E+00
 -1       170 5.08263E-01 4.91933E-01 4.00000E+00
 -1       171 5.29227E-01 0.00000E+00 0.00000E+00
 -1       172 1.00000E+00-4.56728E-01 6.67124E+00
 -1       173 0.00000E+00 4.40000E-01 8.92075E-01
 -1       174 0.00000E+00 5.34435E-01 0.00000E+00
 -1       175 1.00000E+00-2.58656E-01 2.86562E+00
 -1       176 0.00000E+00 4.87775E-01 2.77443E+00
 -1       177 1.00000E+00-1.71445E-02 7.41095E-01
 -1       178 5.04137E-01 8.74508E-01 2.00000E+00
 -1       179 0.00000E+00 7.26875E-01 2.94383E+00
 -1       180 1.00000E+00 7.32555E-01 2.91338E+00
 -1       181 0.00000E+00 4.04539E-01 1.96140E+00
 -1       182 0.00000E+00-2.21504E-02 8.41965E-01
 -1       183 1.00000E+00 1.34678E-01 3.61938E+00
 -1       184 0.00000E+00 9.76630E-01 8.64746E-01
 -1       185 5.15369E-01 1.00000E+00 0.00000E+00
 -1       186 1.00000E+00 9.78620E-01 8.27234E-01
 -1       187 0.00000E+00-4.61758E-01 6.68217E+00
 -1       188 1.00000E+00 5.25991E-01 0.00000E+00
 -1       189 2.70851E-01 4.75164E-01 4.67281E-01
 -1       190 5.34693E-01 4.43803E-01 1.56278E+00
 -1       191 5.07877E-01 2.72520E-01 1.90603E+00
 -1       192 2.92928E-01 6.70049E-01 1.03054E+00
 -1       193 4.66704E-01 4.58333E-01 3.44918E+00
 -1       194 5.29879E-01 4.71776E-01 2.85158E+00
 -1       195 7.03095E-01 5.68476E-01 3.43627E-01
 -1       196 2.96368E-01 5.96414E-01 2.04976E+00
 -1       197 7.10614E-01 6.12462E-01 1.98404E+00
 -1       198 6.90528E-01 1.18471E-01 2.87952E+00
 -1       199 7.49086E-01 2.50109E-01 3.99999E+00
 -1       200 5.28434E-01 3.74028E-01 7.81827E-01
 -1       201 0.00000E+00 7.94235E-01 3.91603E-01
 -1       202 1.00000E+00 2.09418E-01 4.13756E-01
 -1       203 2.19630E-01 9.93131E-01 4.70170E-01
 -1       204 4.53286E-01 2.29861E-01 4.90445E+00
 -1       205 1.00000E+00 9.22362E-02 2.34045E+00
 -1       206 0.00000E+00 1.50220E-01 9.46432E-01
 -1       207 2.57708E-01 1.00000E+00 0.00000E+00
 -1       208 3.06528E-01-7.69882E-03 4.97592E-01
 -1       209 1.00000E+00 1.08219E-01 5.26647E+00
 -1       210 5.06168E-01-1.25492E-01 2.00000E+00
 -1       211 6.78583E-01 9.35234E-01 1.43762E+00
 -1       212 0.00000E+00-4.96834E-03 4.00312E-01
 -1       213 0.00000E+00 7.74965E-01 0.00000E+00
 -1       214 0.00000E+00 1.96520E-01 1.42665E+00
 -1       215 2.32058E-01 9.75379E-01 8.87506E-01
 -1       216 1.00000E+00-6.79506E-03 4.67654E-01
 -1       217 2.66002E-01 0.00000E+00 0.00000E+00
 -1       218 0.00000E+00 2.77381E-01 0.00000E+00
 -1       219 5.38514E-01 7.88967E-01 0.00000E+00
 -1       220 1.00000E+00-5.55675E-02 1.33184E+00
 -1       221 7.99446E-01 3.74619E-01 0.00000E+00
 -1       222 1.00000E+00 9.42556E-01 1.35409E+00
 -1       223 1.00000E+00 7.69749E-01 0.00000E+00
 -1       224 5.03725E-01 7.24759E-01 2.95509E+00
 -1       225 5.68877E-01-1.64533E-01 2.28958E+00
 -1       226 0.00000E+00 5.96330E-01 2.39925E+00
 -1       227 3.31924E-01 5.42773E-01 0.00000E+00
 -1       228 1.00000E+00 2.40001E-02 3.18649E+00
 -1       229 1.00000E+00 6.27780E-01 3.43044E+00
 -1       230 1.00000E+00 2.67358E-01 0.00000E+00
 -1       231 5.62979E-01 2.96080E-01 0.00000E+00
 -1       232 1.00000E+00 1.47547E-01 4.12808E+00
 -1       233 0.00000E+00 3.69033E-01 4.44992E+00
 -1       234 1.00000E+00 8.12238E-01 2.44495E+00
 -1       235 0.00000E+00 8.09303E-01 2.46385E+00
 -1       236 7.89662E-01 9.94785E-01 4.10043E-01
 -1       237 5.61648E-01-2.49951E-02 8.94214E-01
 -1       238 8.32144E-01 6.09192E-01 0.00000E+00
 -1       239 1.00000E+00-3.64124E-01 3.39338E+00
 -1       240 1.00000E+00 9.95522E-01 3.80185E-01
 -1       241 7.59351E-01 9.73092E-01 9.27679E-01
 -1       242 0.00000E+00 9.38854E-01 1.39695E+00
 -1       243 2.75680E-01 6.22172E-01 3.45587E+00
 -1       244 0.00000E+00 9.95141E-01 3.95920E-01
 -1       245 7.57656E-01 1.00000E+00 0.00000E+00
 -1       246 0.00000E+00 4.33606E-01 3.36914E+00
 -1       247 0.00000E+00 2.93301E-01 2.32675E+00
 -1       248 0.00000E+00 6.20140E-01 3.46503E+00
 -1       249 7.27624E-01 4.06932E-01 4.31682E+00
 -1       250 0.00000E+00 7.47989E-01 8.60233E-01
 -1       251 1.00000E+00 2.46120E-01 2.81367E+00
 -1       252 1.00000E+00-1.81609E-01 2.40481E+00
 -1       253 1.00000E+00 4.08714E-01 4.31044E+00
 -1       254 7.73575E-01 0.00000E+00 0.00000E+00
 -1       255 1.00000E+00 4.87462E-01 8.61564E-01
 -1       256 0.00000E+00-7.59541E-02 1.55661E+00
 -1       257 6.62314E-01 2.26738E-01 4.35838E-01
 -1       258 6.46054E-01 3.23952E-01 2.22590E+00
 -1       259 6.26355E-01 7.38779E-01 6.12252E-01
 -1       260 8.44061E-01 4.08339E-01 1.93897E-01
 -1       261 7.54552E-01 1.69042E-01 9.01712E-01
 -1       262 4.70325E-01 5.18549E-01 4.01546E-01
 -1       263 2.97334E-01 2.25433E-01 2.12819E+00
 -1       264 7.50416E-01-3.88742E-02 2.20160E+00
 -1       265 2.40305E-01 3.62204E-01 9.39685E-01
 -1       266 5.15584E-01 7.16664E-01 9.25327E-01
 -1       267 7.01662E-01 5.86003E-01 1.25778E+00
 -1       268 3.56700E-01 6.11514E-01 1.20455E+00
 -1       269 8.30755E-01 5.42531E-01 6.10443E-01
 -1       270 2.44335E-01 7.44724E-01 2.84365E-01
 -1       271 1.98065E-01 4.43264E-01 2.23163E-01
 -1       272 5.46613E-01 4.02551E-01 1.11201E+00
 -1       273 2.26731E-01 7.51004E-02 1.90731E+00
 -1       274 2.52982E-01 4.21255E-01 1.75340E+00
 -1       275 2.03454E-01 7.19609E-01 1.16385E+00
 -1       276 7.14675E-01 4.62363E-01 8.31269E-01
 -1       277 3.23276E-01 5.97162E-01 7.01724E-01
 -1       278 4.38207E-01 2.59235E-01 2.05145E-01
 -1       279 6.90298E-01 8.14573E-01 1.92839E-01
 -1       280 3.52406E-01 2.37710E-01 6.55277E-01
 -1       281 6.28037E-01 1.21757E-01 1.56415E+00
 -1       282 8.49973E-01 7.63422E-01 3.86173E-01
 -1       283 2.65431E-01 7.08558E-01 1.50054E+00
 -1       284 2.73822E-01 1.96951E-01 1.62476E+00
 -1       285 1.61370E-01 2.36382E-01 4.65634E-01
 -1       286 4.44109E-01 6.08919E-01 2.40100E+00
 -1       287 6.40834E-01 4.16657E-01 1.84166E-01
 -1       288 1.38087E-01 8.18929E-01 6.21725E-01
 -1       289 8.29240E-01 6.38697E-01 2.20092E+00
 -1       290 8.46477E-01 1.93500E-01 1.82655E-01
 -1       291 6.77294E-01 6.88793E-01 1.69338E+00
 -1       292 1.38562E-01 4.19090E-01 6.86528E-01
 -1       293 2.53585E-01 3.33870E-01 1.31571E+00
 -1       294 8.11535E-01 3.54855E-01 3.32814E+00
 -1       295 2.41681E-01 9.13655E-02 9.30071E-01
 -1       296 8.02722E-01 6.80357E-01 9.03035E-01
 -1       297 7.94985E-01-2.41469E-02 4.67747E+00
 -1       298 6.26043E-01 6.20188E-01 3.46482E+00
 -1       299 0.00000E+00 5.59084E-01 1.36550E+00
 -1       300 1.00000E+00 2.57266E-01 2.22600E-01
 -1       301 0.00000E+00 1.35571E-01 6.79948E-01
 -1       302 7.63860E-01 9.05529E-01 1.73567E+00
 -1       303 8.26974E-01-2.07560E-01 2.56965E+00
 -1       304 0.00000E+00 1.25748E-01 2.27107E-01
 -1       305 0.00000E+00 9.60749E-01 1.11982E+00
 -1       306 7.37091E-01 9.85709E-01 6.76861E-01
 -1       307 3.41997E-01 4.27524E-01 4.24252E+00
 -1       308 1.00000E+00 9.63677E-01 1.07736E+00
 -1       309 7.28320E-01 8.41888E-01 2.24465E+00
 -1       310 1.33621E-01-1.55189E-02 7.05228E-01
 -1       311 1.00000E+00 6.89802E-02 2.59247E+00
 -1       312 1.00000E+00 6.94647E-01 4.74115E-01
 -1       313 1.00000E+00 4.55488E-01 2.55943E+00
 -1       314 1.00000E+00 6.62157E-01 1.10912E+00
 -1       315 1.00000E+00 3.13085E-01 3.29430E+00
 -1       316 5.68739E-01 9.56665E-01 1.17649E+00
 -1       317 2.50641E-01 7.68495E-01 2.71253E+00
 -1       318 1.00000E+00 1.48830E-01 1.95374E+00
 -1       319 0.00000E+00 5.78783E-01 5.61075E-01
 -1       320 1.00000E+00 9.82006E-02 6.66278E-01
 -1       321 1.00000E+00 9.98995E-01 1.81649E-01
 -1       322 7.67365E-01 6.77236E-01 3.19716E+00
 -1       323 1.00000E+00 9.13471E-01 1.66124E+00
 -1       324 7.57409E-01-9.01159E-02 1.69527E+00
 -1       325 6.34663E-01 7.90166E-01 2.58358E+00
 -1       326 0.00000E+00-4.13773E-02 1.14968E+00
 -1       327 2.42910E-01-1.54912E-01 2.22189E+00
 -1       328 8.81841E-01-1.57543E-03 2.26716E-01
 -1       329 3.17423E-01-3.00313E-02 9.79886E-01
 -1       330 1.00000E+00-8.52799E-02 1.64923E+00
 -1       331 1.00000E+00 2.16739E-01 8.97400E-01
 -1       332 0.00000E+00 9.06430E-02 1.70002E+00
 -1       333 3.24980E-01-9.26155E-02 1.71858E+00
 -1       334 1.00000E+00 4.19009E-01 6.25451E-01
 -1       335 6.54721E-01-6.87341E-03 4.70325E-01
 -1       336 6.11662E-01 9.98648E-01 2.10232E-01
 -1       337 2.85362E-01 2.78519E-01 0.00000E+00
 -1       338 4.95631E-01 9.93980E-01 4.40352E-01
 -1       339 2.38660E-01 9.09613E-01 1.69781E+00
 -1       340 1.00000E+00-1.48306E-03 2.20058E-01
 -1       341 3.55548E-01-1.33160E-03 2.08674E-01
 -1       342 0.00000E+00 3.12597E-01 1.67143E+00
 -1       343 0.00000E+00 5.91068E-01 2.05524E-01
 -1       344 0.00000E+00 8.52706E-01 1.94541E-01
 -1       345 1.00000E+00-3.40815E-02 1.04368E+00
 -1       346 6.94217E-01-4.31866E-02 1.17448E+00
 -1       347 0.00000E+00 9.87838E-01 6.24634E-01
 -1       348 7.82867E-01 8.00329E-01 0.00000E+00
 -1       349 4.50015E-01 3.36682E-01 4.56010E+00
 -1       350 7.64136E-01-1.55380E-01 2.22523E+00
 -1       351 2.82078E-01 7.81240E-01 0.00000E+00
 -1       352 1.00000E+00 7.16889E-01 8.11698E-01
 -1       353 1.00000E+00 2.97461E-01 1.49030E+00
 -1       354 1.00000E+00-4.07213E-02 4.51264E+00
 -1       355 1.00000E+00 9.88969E-01 5.95027E-01
 -1       356 0.00000E+00 1.65984E-01 5.09809E+00
 -1       357 1.00000E+00 2.68232E-01 2.15112E+00
 -1       358 1.00000E+00 5.91073E-01 2.15204E+00
 -1       359 0.00000E+00 9.10732E-01 1.68728E+00
 -1       360 0.00000E+00 3.20769E-01 1.14995E+00
 -1       361 2.45552E-01 9.98389E-01 2.29214E-01
 -1       362 4.29668E-01-1.56709E-02 7.08659E-01
 -1       363 3.05111E-01 8.36938E-01 2.27936E+00
 -1       364 3.40461E-01 9.85272E-01 6.87085E-01
 -1       365 4.08630E-01 7.58999E-01 5.47751E-01
 -1       366 8.09711E-01 7.84516E-01 1.90646E-01
 -1       367 6.38345E-01 1.50360E-01 1.96884E-01
 -1       368 8.32403E-01 2.27468E-01 1.20264E+00
 -1       369 5.56712E-01 2.62094E-01 1.35720E+00
 -1       370 2.37890E-01 7.30233E-01 1.83483E+00
 -1       371 1.37953E-01 5.53047E-01 4.52185E-01
 -1       372 8.22777E-01 4.22479E-01 2.42533E+00
 -1       373 8.33595E-01 4.25371E-01 1.49280E+00
 -1       374 8.59299E-01 2.64807E-01 7.52005E-01
 -1       375 8.50166E-01 4.91314E-01 2.99428E+00
 -1       376 8.31585E-01 2.61151E-01 1.77098E+00
 -1       377 4.13651E-01 8.75526E-01 1.54548E-01
 -1       378 4.49329E-01 6.41127E-01 1.51531E-01
 -1       379 8.00870E-01 7.26301E-01 1.49383E+00
 -1       380 4.66068E-01 1.00482E-01 4.51012E-01
 -1       381 4.89201E-01 7.88178E-01 2.94214E-01
 -1       382 4.63564E-01 6.15499E-01 1.75220E+00
 -1       383 5.21663E-01 1.99588E-01 2.40270E+00
 -1       384 4.90527E-01 6.24650E-01 1.40424E+00
 -1       385 2.21636E-01 1.93259E-01 2.15995E-01
 -1       386 9.18027E-01 6.57567E-01 1.81051E+00
 -1       387 8.58030E-01 6.12280E-01 2.33419E-01
 -1       388 4.41109E-01 1.51113E-01 1.10483E+00
 -1       389 9.24084E-01 7.42002E-01 6.11001E-01
 -1       390 7.91445E-01 7.79097E-01 1.17011E+00
 -1       391 6.54813E-01 5.15561E-01 5.53145E-01
 -1       392 3.08725E-01 8.61456E-02 2.37163E+00
 -1       393 8.52274E-01 4.16366E-01 3.90034E-01
 -1       394 9.04739E-01-2.80406E-01 2.98238E+00
 -1       395 0.00000E+00 6.63269E-01 1.67602E+00
 -1       396 1.00000E+00 6.15163E-01 1.42145E+00
 -1       397 1.00000E+00 4.71945E-01 3.16812E-01
 -1       398 0.00000E+00 4.98819E-01 1.14783E+00
 -1       399 1.00000E+00 2.98994E-01 1.16944E+00
 -1       400 1.00000E+00 6.37296E-01 1.77177E+00
 -1       401 1.00000E+00 6.94997E-01 2.02569E-01
 -1       402 8.11865E-01 5.58643E-01 3.73150E+00
 -1       403 8.34909E-01-2.94711E-02 9.70732E-01
 -1       404 6.75462E-01-6.31019E-04 1.44580E-01
 -1       405 0.00000E+00 2.89853E-01 3.37825E-01
 -1       406 2.59070E-01 1.70039E-02 5.52089E+00
 -1       407 8.36264E-01 9.98837E-01 1.95168E-01
 -1       408 3.50327E-01-5.88373E-02 1.37038E+00
 -1       409 4.08826E-01 9.35744E-01 1.43196E+00
 -1       410 2.82635E-01 9.58757E-01 1.14781E+00
 -1       411 7.93067E-01 9.52839E-01 1.22720E+00
 -1       412 5.07577E-01 9.07461E-01 1.71786E+00
 -1       413 9.23506E-01 1.67303E-01 1.42240E+00
 -1       414 2.29581E-01 5.35391E-02 1.43942E+00
 -1       415 7.00990E-01 6.30614E-01 1.34193E-01
 -1       416 6.41373E-01 7.83703E-01 4.12754E-01
 -1       417 6.43556E-01 1.63324E-01 6.63020E-01
 -1       418 8.38548E-01 4.60703E-01 1.09040E+00
 -1       419 1.96529E-01 7.84947E-01 4.94748E-01
 -1       420 7.52029E-01-1.66517E-02 7.30408E-01
 -1       421 1.00000E+00-1.73467E-01 3.80004E+00
 -1       422 1.00000E+00-3.60617E-04 1.10032E-01
 -1       423 9.40920E-01-3.83403E-04 1.13361E-01
 -1       424 1.00000E+00 1.28633E-01 1.11300E-01
 -1       425 9.23239E-01 9.67500E-02 9.13275E-02
 -1       426 8.86787E-01 0.00000E+00 0.00000E+00
 -1       427 1.00000E+00 1.33679E-01 0.00000E+00
 -1       428 1.10818E-01 9.66294E-02 1.07997E-01
 -1       429 1.77774E-01-3.23273E-04 1.04339E-01
 -1       430 0.00000E+00 6.28741E-02 1.13553E-01
 -1       431 0.00000E+00 1.38690E-01 0.00000E+00
 -1       432 1.33001E-01 0.00000E+00 0.00000E+00
 -1       433 0.00000E+00-1.22378E-03 2.00172E-01
 -1       434 9.18132E-01 9.99718E-01 9.75859E-02
 -1       435 9.04855E-01 8.92258E-01 9.53232E-02
 -1       436 8.91433E-01 9.00165E-01 0.00000E+00
 -1       437 1.00000E+00 9.99757E-01 9.08260E-02
 -1       438 8.78828E-01 1.00000E+00 0.00000E+00
 -1       439 1.00000E+00 8.84874E-01 0.00000E+00
 -1       440 1.22776E-01 9.99608E-01 1.14610E-01
 -1       441 0.00000E+00 9.26353E-01 9.72705E-02
 -1       442 0.00000E+00 9.98803E-01 1.97975E-01
 -1       443 0.00000E+00 8.87483E-01 0.00000E+00
 -1       444 1.28854E-01 1.00000E+00 0.00000E+00
 -1       445 1.00000E+00-1.30016E+00 7.33562E+00
 -1       446 7.33560E-01-1.32234E+00 7.38344E+00
 -1       447 5.00000E-01-2.14359E+00 8.00000E+00
 -1       448 1.00000E+00-1.62083E+00 7.01702E+00
 -1       449 5.00000E-01-1.62083E+00 7.01702E+00
 -1       450 1.00000E+00-1.64359E+00 8.00000E+00
 -1       451 1.00000E+00-7.85155E-01 7.34338E+00
 -1       452 7.33560E-01-8.09458E-01 7.39016E+00
 -1       453 5.00000E-01-1.64359E+00 8.00000E+00
 -1       454 5.00000E-01-1.14359E+00 8.00000E+00
 -1       455 0.00000E+00-1.30267E+00 7.34108E+00
 -1       456 2.33560E-01-1.32234E+00 7.38344E+00
 -1       457 0.00000E+00-1.64359E+00 8.00000E+00
 -1       458 0.00000E+00-1.62083E+00 7.01702E+00
 -1       459 0.00000E+00-7.87921E-01 7.34873E+00
 -1       460 2.33560E-01-8.09458E-01 7.39016E+00
 -1       461 1.00000E+00 7.13700E-02 2.07556E+00
 -1       462 8.82068E-01-1.40024E-01 2.11267E+00
 -1       463 1.00000E+00-1.04431E-01 1.82472E+00
 -1       464 8.78704E-01-1.07083E-01 1.84772E+00
 -1       465 1.00000E+00 1.16689E-02 1.97687E+00
 -1       466 8.75208E-01-8.21831E-02 2.10080E+00
 -1       467 1.00000E+00-1.52224E-01 2.20259E+00
 -1       468 7.53084E-01-1.25492E-01 2.00000E+00
 -1       469 1.00000E+00-1.66279E-02 2.17023E+00
 -1       470 1.62490E-01-1.08439E-01 1.85936E+00
 -1       471 0.00000E+00-1.74245E-02 1.85001E+00
 -1       472 1.21455E-01-1.39802E-01 2.11100E+00
 -1       473 1.13366E-01-2.51958E-02 1.95365E+00
 -1       474 1.48667E-01 4.99706E-02 2.06410E+00
 -1       475 0.00000E+00-9.91957E-02 1.77848E+00
 -1       476 0.00000E+00 8.39043E-02 2.16338E+00
 -1       477 2.53084E-01-1.25492E-01 2.00000E+00
 -1       478 0.00000E+00 1.39523E-01 1.98070E+00
 -1       479 0.00000E+00-2.84935E-01 3.00610E+00
 -1       480 1.00000E+00-3.40767E-01 3.90002E+00
 -1       481 1.00000E+00-2.74394E-01 4.25632E+00
 -1       482 8.97493E-01-2.66107E-01 4.33874E+00
 -1       483 1.00000E+00-4.33220E-01 3.69737E+00
 -1       484 1.00000E+00-1.80260E-01 4.06404E+00
 -1       485 1.00000E+00-8.04909E-01 5.01088E+00
 -1       486 7.49936E-01-2.58115E-01 3.99993E+00
 -1       487 5.00000E-01-5.08067E-01 4.00000E+00
 -1       488 1.29535E-01-2.45532E-01 4.76044E+00
 -1       489 4.52369E-01-3.86097E-01 3.49301E+00
 -1       490 1.54362E-01-2.10961E-01 3.18582E+00
 -1       491 0.00000E+00-1.71041E-01 4.54905E+00
 -1       492 2.25007E-01-8.56925E-02 4.28005E+00
 -1       493 1.21455E-01-3.06388E-01 3.11594E+00
 -1       494 4.13487E-01-3.41643E-01 3.28823E+00
 -1       495 0.00000E+00-1.07383E-01 3.16338E+00
 -1       496 0.00000E+00-3.72303E-02 3.68457E+00
 -1       497 5.00000E-01-4.33220E-01 3.69737E+00
 -1       498 0.00000E+00-6.95170E-02 4.22496E+00
 -1       499 2.84438E-01-3.13093E-01 3.14946E+00
 -1       500 2.26643E-01-1.39103E-01 4.45222E+00
 -1       501 3.45264E-01-1.94798E-01 3.43976E+00
 -1       502 0.00000E+00-1.01461E-02 3.38721E+00
 -1       503 0.00000E+00-8.06700E-03 4.00000E+00
 -1       504 6.29535E-01-5.75298E-01 5.76044E+00
 -1       505 1.00000E+00-6.04161E-01 5.25632E+00
 -1       506 8.97493E-01-5.95873E-01 5.33874E+00
 -1       507 1.00000E+00-5.29691E-01 5.63323E+00
 -1       508 1.00000E+00-8.12164E-01 6.33562E+00
 -1       509 7.33560E-01-8.34342E-01 6.38344E+00
 -1       510 1.00000E+00-6.67602E-01 6.00000E+00
 -1       511 1.29535E-01-5.75298E-01 5.76044E+00
 -1       512 0.00000E+00-5.00808E-01 5.54905E+00
 -1       513 3.97493E-01-5.95873E-01 5.33874E+00
 -1       514 2.26643E-01-4.68870E-01 5.45222E+00
 -1       515 0.00000E+00-8.14679E-01 6.34108E+00
 -1       516 2.33560E-01-8.34342E-01 6.38344E+00
 -1       517 5.00000E-01-6.67602E-01 6.00000E+00
 -1       518 0.00000E+00-6.67602E-01 6.00000E+00
 -1       519 0.00000E+00 7.68888E-01 1.83801E+00
 -1       520 1.18945E-01 8.02371E-01 1.91741E+00
 -1       521 1.52556E-01 8.56356E-01 2.13977E+00
 -1       522 0.00000E+00 8.93379E-01 1.84373E+00
 -1       523 1.19330E-01 8.92769E-01 1.84899E+00
 -1       524 0.00000E+00 8.43647E-01 2.23217E+00
 -1       525 0.00000E+00 7.35419E-01 2.19963E+00
 -1       526 1.48184E-01 7.35461E-01 2.02488E+00
 -1       527 0.00000E+00 6.39524E-01 1.98070E+00
 -1       528 2.52068E-01 8.74508E-01 2.00000E+00
 -1       529 1.70998E-01 4.60230E-01 4.12139E+00
 -1       530 0.00000E+00 5.58270E-01 3.73305E+00
 -1       531 0.00000E+00 4.62770E-01 3.68457E+00
 -1       532 1.37840E-01 5.59364E-01 3.72849E+00
 -1       533 0.00000E+00 4.32203E-01 4.22543E+00
 -1       534 2.33352E-01 4.75133E-01 3.72459E+00
 -1       535 2.54132E-01 4.91933E-01 4.00000E+00
 -1       536 2.49935E-01 2.41885E-01 3.99993E+00
 -1       537 1.29535E-01-7.34748E-02 5.76115E+00
 -1       538 0.00000E+00 5.72288E-03 5.55146E+00
 -1       539 0.00000E+00-3.10454E-01 6.34291E+00
 -1       540 2.33560E-01-3.29016E-01 6.38576E+00
 -1       541 5.00000E-01-1.67603E-01 6.00000E+00
 -1       542 1.00000E+00 7.55902E-01 1.88589E+00
 -1       543 9.59013E-01 7.66038E-01 1.90526E+00
 -1       544 1.00000E+00 7.32790E-01 2.07602E+00
 -1       545 1.00000E+00 8.94881E-01 1.83072E+00
 -1       546 8.64160E-01 8.58683E-01 2.12239E+00
 -1       547 8.81930E-01 8.90561E-01 1.86790E+00
 -1       548 9.14620E-01 7.56603E-01 2.10046E+00
 -1       549 1.00000E+00 8.44976E-01 2.22270E+00
 -1       550 8.55307E-01 7.43485E-01 1.99202E+00
 -1       551 7.52068E-01 8.74508E-01 2.00000E+00
 -1       552 9.05933E-01 5.25848E-01 3.86589E+00
 -1       553 1.00000E+00 4.51144E-01 4.15544E+00
 -1       554 8.63812E-01 4.50287E-01 4.15864E+00
 -1       555 1.00000E+00 3.19740E-01 4.06404E+00
 -1       556 1.00000E+00 5.62390E-01 3.71582E+00
 -1       557 8.74543E-01 3.71021E-01 4.00000E+00
 -1       558 1.00000E+00 3.13305E-01 3.80969E+00
 -1       559 7.54132E-01 4.91933E-01 4.00000E+00
 -1       560 6.29535E-01-7.34748E-02 5.76115E+00
 -1       561 1.00000E+00-2.53884E-02 5.63485E+00
 -1       562 1.00000E+00-3.08072E-01 6.33738E+00
 -1       563 7.33560E-01-3.29016E-01 6.38576E+00
 -1       564 7.49936E-01-9.08144E-02 3.89996E+00
 -1       565 7.49936E-01-2.44417E-02 4.25626E+00
 -1       566 4.74943E-01 1.64260E-01 4.27998E+00
 -1       567 4.20934E-01 2.09681E-01 4.12119E+00
 -1       568 6.47428E-01-1.61545E-02 4.33867E+00
 -1       569 6.55703E-01 1.73346E-01 3.66400E+00
 -1       570 6.13747E-01 1.99385E-01 4.15834E+00
 -1       571 2.49935E-01 2.12722E-01 3.68450E+00
 -1       572 7.49936E-01-1.86143E-01 3.69663E+00
 -1       573 2.49935E-01 1.80436E-01 4.22489E+00
 -1       574 7.49936E-01 6.96924E-02 4.06398E+00
 -1       575 7.49936E-01 7.91905E-03 3.59318E+00
 -1       576 4.76579E-01 1.10849E-01 4.45216E+00
 -1       577 6.24478E-01 1.20973E-01 3.99993E+00
 -1       578 5.95199E-01 5.51546E-02 3.43970E+00
 -1       579 4.83287E-01 2.25085E-01 3.72453E+00
 -1       580 7.49936E-01 6.32580E-02 3.80962E+00
 -1       581 5.04067E-01 2.41885E-01 3.99993E+00
 -1       582 7.49936E-01 1.40509E-01 4.35828E+00
 -1       583 2.33560E-01-4.81357E-01 6.72455E+00
 -1       584 7.33560E-01-4.78824E-01 6.71909E+00
 -1       585 1.00000E+00 1.24230E-01 4.61467E+00
 -1       586 7.25007E-01 3.13136E-01 4.63846E+00
 -1       587 8.97493E-01 1.32517E-01 4.69708E+00
 -1       588 1.00000E+00 3.50334E-01 4.51397E+00
 -1       589 8.63812E-01 3.49399E-01 4.51715E+00
 -1       590 1.00000E+00 2.18364E-01 4.42239E+00
 -1       591 1.00000E+00 2.01189E-01 4.99240E+00
 -1       592 7.26643E-01 2.59813E-01 4.81066E+00
 -1       593 3.87286E-01 9.66887E-01 1.02878E+00
 -1       594 4.50283E-01 8.66564E-01 7.28725E-01
 -1       595 4.16198E-01 9.80089E-01 7.98411E-01
 -1       596 5.30338E-01 9.65954E-01 1.04313E+00
 -1       597 6.14514E-01 9.80344E-01 7.93301E-01
 -1       598 5.03760E-01 8.45396E-01 9.17513E-01
 -1       599 5.59146E-01 8.56454E-01 7.60975E-01
 -1       600 6.25644E-01 9.73613E-01 9.18689E-01
 -1       601 3.61997E-01 9.74758E-01 8.98602E-01
 -1       602 3.92432E-01 8.22089E-01 9.70118E-01
 -1       603 1.00000E+00 5.14041E-01 1.83346E+00
 -1       604 9.59013E-01 5.24177E-01 1.85283E+00
 -1       605 9.15792E-01 3.25969E-01 1.83306E+00
 -1       606 9.16797E-01 4.08079E-01 1.69398E+00
 -1       607 1.00000E+00 4.90930E-01 2.02360E+00
 -1       608 1.00000E+00 3.29510E-01 2.02314E+00
 -1       609 1.00000E+00 3.44124E-01 1.69272E+00
 -1       610 1.00000E+00 2.69808E-01 1.92445E+00
 -1       611 9.14620E-01 5.14742E-01 2.04803E+00
 -1       612 8.23027E-01 3.57370E-01 2.06053E+00
 -1       613 8.55307E-01 5.01624E-01 1.93959E+00
 -1       614 6.71346E-01 5.99718E-01 6.70965E-02
 -1       615 5.45515E-01 6.04975E-01 7.57656E-02
 -1       616 7.12284E-01 6.84576E-01 0.00000E+00
 -1       617 6.41268E-01 4.92740E-01 9.20828E-02
 -1       618 7.36922E-01 5.89008E-01 0.00000E+00
 -1       619 6.02340E-01 4.32452E-01 0.00000E+00
 -1       620 4.86813E-01 5.55798E-01 0.00000E+00
 -1       621 7.20574E-01 4.71721E-01 0.00000E+00
 -1       622 5.90108E-01 6.78895E-01 0.00000E+00
 -1       623 6.60064E-01 5.25848E-01 3.86589E+00
 -1       624 4.25130E-01 4.60230E-01 4.12139E+00
 -1       625 5.67153E-01 5.58296E-01 3.73294E+00
 -1       626 6.17943E-01 4.50287E-01 4.15864E+00
 -1       627 3.91972E-01 5.59364E-01 3.72849E+00
 -1       628 6.28674E-01 3.71021E-01 4.00000E+00
 -1       629 4.87483E-01 4.75133E-01 3.72459E+00
 -1       630 6.02345E-01-1.51078E-04 7.22909E-02
 -1       631 5.83786E-01 7.51802E-02 9.84418E-02
 -1       632 4.42387E-01-3.23273E-04 1.04339E-01
 -1       633 4.07295E-01 1.39259E-01 0.00000E+00
 -1       634 4.83717E-01 1.29617E-01 1.02573E-01
 -1       635 6.51401E-01 0.00000E+00 0.00000E+00
 -1       636 5.46103E-01 1.48040E-01 0.00000E+00
 -1       637 3.97614E-01 0.00000E+00 0.00000E+00
 -1       638 0.00000E+00 4.69410E-01 1.01995E+00
 -1       639 0.00000E+00 3.80385E-01 1.02101E+00
 -1       640 0.00000E+00 5.09392E-01 7.26575E-01
 -1       641 0.00000E+00 2.87786E-01 7.86012E-01
 -1       642 6.92810E-02 4.29545E-01 7.89302E-01
 -1       643 1.61638E-01 5.18581E-01 7.96900E-01
 -1       644 1.20153E-01 4.01102E-01 9.15880E-01
 -1       645 0.00000E+00 5.93994E-01 8.76154E-01
 -1       646 0.00000E+00 2.95110E-01 9.19254E-01
 -1       647 1.46464E-01 5.55025E-01 9.61306E-01
 -1       648 1.41039E-01 6.57837E-01 0.00000E+00
 -1       649 0.00000E+00 5.62751E-01 1.02762E-01
 -1       650 1.42681E-01 4.06477E-01 0.00000E+00
 -1       651 9.90327E-02 4.88849E-01 1.11582E-01
 -1       652 1.65962E-01 5.38604E-01 0.00000E+00
 -1       653 0.00000E+00 4.05908E-01 0.00000E+00
 -1       654 0.00000E+00 6.54700E-01 0.00000E+00
 -1       655 9.52369E-01-2.69423E-01 2.92402E+00
 -1       656 1.00000E+00-9.48381E-02 2.72904E+00
 -1       657 9.13487E-01-2.32406E-01 2.71775E+00
 -1       658 1.00000E+00-2.18428E-01 2.63550E+00
 -1       659 1.00000E+00-6.26841E-03 2.83964E+00
 -1       660 1.00000E+00-3.09180E-01 3.12994E+00
 -1       661 1.00000E+00-1.17328E-01 3.02606E+00
 -1       662 8.45264E-01-7.00925E-02 2.87257E+00
 -1       663 2.22055E-01 5.48347E-01 2.58771E+00
 -1       664 1.54362E-01 2.86960E-01 2.57303E+00
 -1       665 2.60832E-01 3.43682E-01 2.58856E+00
 -1       666 1.25321E-01 6.28135E-01 2.74348E+00
 -1       667 0.00000E+00 3.90538E-01 2.55059E+00
 -1       668 0.00000E+00 4.60691E-01 3.07178E+00
 -1       669 0.00000E+00 5.42052E-01 2.58684E+00
 -1       670 3.45264E-01 3.03123E-01 2.82698E+00
 -1       671 2.64940E-01 4.79775E-01 2.81300E+00
 -1       672 0.00000E+00 6.07325E-01 2.85913E+00
 -1       673 8.76014E-01-1.68972E-02 7.35752E-01
 -1       674 9.17455E-01-2.28942E-02 8.55936E-01
 -1       675 1.00000E+00-2.48951E-02 8.92429E-01
 -1       676 1.00000E+00 9.97971E-02 8.19247E-01
 -1       677 1.00000E+00 4.05280E-02 7.03687E-01
 -1       678 8.77276E-01 7.59486E-02 8.21404E-01
 -1       679 1.00000E+00-1.13825E-02 6.04397E-01
 -1       680 5.05857E-01 8.91602E-01 1.85900E+00
 -1       681 4.83850E-01 7.45003E-01 1.87610E+00
 -1       682 3.71013E-01 8.02371E-01 1.91741E+00
 -1       683 4.04624E-01 8.56356E-01 2.13977E+00
 -1       684 3.71399E-01 8.92769E-01 1.84899E+00
 -1       685 6.16228E-01 8.58683E-01 2.12239E+00
 -1       686 6.33998E-01 8.90561E-01 1.86790E+00
 -1       687 5.90715E-01 7.81650E-01 1.84669E+00
 -1       688 6.07376E-01 7.43485E-01 1.99202E+00
 -1       689 4.00252E-01 7.35461E-01 2.02488E+00
 -1       690 1.25321E-01 7.48113E-01 2.82826E+00
 -1       691 0.00000E+00 6.75660E-01 3.20487E+00
 -1       692 0.00000E+00 5.80241E-01 3.15648E+00
 -1       693 1.37840E-01 6.76601E-01 3.20027E+00
 -1       694 0.00000E+00 7.69936E-01 2.70415E+00
 -1       695 0.00000E+00 6.61603E-01 2.67154E+00
 -1       696 2.51863E-01 7.25818E-01 2.94946E+00
 -1       697 2.64940E-01 5.99325E-01 2.89770E+00
 -1       698 9.25083E-01 6.11934E-01 2.95383E+00
 -1       699 8.17331E-01 7.62231E-01 2.74863E+00
 -1       700 8.83683E-01 7.05536E-01 3.05540E+00
 -1       701 1.00000E+00 5.22820E-01 3.10384E+00
 -1       702 1.00000E+00 5.94021E-01 2.73641E+00
 -1       703 1.00000E+00 4.89337E-01 2.86353E+00
 -1       704 1.00000E+00 7.74157E-01 2.67946E+00
 -1       705 1.00000E+00 6.82287E-01 3.17234E+00
 -1       706 7.51863E-01 7.28671E-01 2.93424E+00
 -1       707 0.00000E+00 5.33904E-01 1.81871E+00
 -1       708 1.18945E-01 5.67386E-01 1.89812E+00
 -1       709 0.00000E+00 3.58568E-01 1.81642E+00
 -1       710 0.00000E+00 2.47591E-01 1.83071E+00
 -1       711 1.36911E-01 3.00745E-01 1.79308E+00
 -1       712 1.26491E-01 4.12897E-01 1.85740E+00
 -1       713 1.13366E-01 2.39820E-01 1.93436E+00
 -1       714 1.48667E-01 3.14986E-01 2.04480E+00
 -1       715 0.00000E+00 3.48920E-01 2.14408E+00
 -1       716 0.00000E+00 5.00435E-01 2.18033E+00
 -1       717 1.48184E-01 5.00476E-01 2.00558E+00
 -1       718 1.58711E-01-2.59417E-02 9.10934E-01
 -1       719 0.00000E+00-3.10219E-02 9.95868E-01
 -1       720 6.68107E-02-1.86879E-02 7.73604E-01
 -1       721 0.00000E+00 5.67104E-02 7.60956E-01
 -1       722 1.20840E-01 3.46076E-02 8.86018E-01
 -1       723 0.00000E+00-1.20273E-02 6.21198E-01
 -1       724 0.00000E+00 6.40350E-02 8.94198E-01
 -1       725 1.00000E+00-1.93944E-02 3.70971E+00
 -1       726 9.05933E-01 3.46660E-01 3.67544E+00
 -1       727 1.00000E+00 2.23881E-01 3.45684E+00
 -1       728 9.05768E-01 2.44766E-01 3.47376E+00
 -1       729 1.00000E+00-1.14723E-01 3.50638E+00
 -1       730 1.00000E+00 1.41112E-01 3.87373E+00
 -1       731 1.00000E+00 3.81229E-01 3.52491E+00
 -1       732 1.00000E+00 7.93391E-02 3.40294E+00
 -1       733 8.74543E-01 1.92393E-01 3.80969E+00
 -1       734 0.00000E+00 9.82687E-01 7.44711E-01
 -1       735 0.00000E+00 9.69199E-01 9.92312E-01
 -1       736 6.90433E-02 8.97780E-01 7.43235E-01
 -1       737 0.00000E+00 8.62309E-01 8.62490E-01