    1C
    1UUSER                                                              
    1UDATE              22.april.2025                                   
    1UTIME              17:12:19                                        
    1UHOST                                                              
    1UPGM               CalculiX                                        
    1UVERSION           Version DEVELOPMENT                             
    1UCOMPILETIME       Tue Apr 22 15:45:42 CEST 2025                    
    1UDIR                                                               
    1UDBN                                                               
    1UMAT    1EL                                                        
    2C                           548                                     1
 -1         1 1.00000E+00 0.00000E+00 0.00000E+00
 -1         2 0.00000E+00 0.00000E+00 0.00000E+00
 -1         3 1.00000E+00 1.00000E+00 0.00000E+00
 -1         4 5.00000E-01 0.00000E+00 0.00000E+00
 -1         5 5.00000E-01 5.00000E-01 0.00000E+00
 -1         6 1.00000E+00 5.00000E-01 0.00000E+00
 -1         7 0.00000E+00 1.00000E+00 0.00000E+00
 -1         8 0.00000E+00 5.00000E-01 0.00000E+00
 -1         9 5.00000E-01 1.00000E+00 0.00000E+00
 -1        10 1.00000E+00-2.14359E+00 8.00000E+00
 -1        11 1.00000E+00-1.14359E+00 8.00000E+00
 -1        12 0.00000E+00-2.14359E+00 8.00000E+00
 -1        13 1.00000E+00-1.64359E+00 8.00000E+00
 -1        14 5.00000E-01-1.64359E+00 8.00000E+00
 -1        15 5.00000E-01-2.14359E+00 8.00000E+00
 -1        16 0.00000E+00-1.14359E+00 8.00000E+00
 -1        17 5.00000E-01-1.14359E+00 8.00000E+00
 -1        18 0.00000E+00-1.64359E+00 8.00000E+00
 -1        19 1.00000E+00-1.25492E-01 2.00000E+00
 -1        22 0.00000E+00-1.25492E-01 2.00000E+00
 -1        25 1.00000E+00-5.08067E-01 4.00000E+00
 -1        28 0.00000E+00-5.08067E-01 4.00000E+00
 -1        31 1.00000E+00-1.16760E+00 6.00000E+00
 -1        33 5.00000E-01-8.01316E-01 5.00000E+00
 -1        34 0.00000E+00-1.16760E+00 6.00000E+00
 -1        35 5.00000E-01-1.16760E+00 6.00000E+00
 -1        36 0.00000E+00-8.01316E-01 5.00000E+00
 -1        37 1.00000E+00-1.61251E+00 7.00000E+00
 -1        38 5.00000E-01-1.61251E+00 7.00000E+00
 -1        39 0.00000E+00-1.61251E+00 7.00000E+00
 -1        40 0.00000E+00 8.74508E-01 2.00000E+00
 -1        44 0.00000E+00 4.91933E-01 4.00000E+00
 -1        48 0.00000E+00-1.67603E-01 6.00000E+00
 -1        52 0.00000E+00-1.11251E+00 7.00000E+00
 -1        54 1.00000E+00 8.74508E-01 2.00000E+00
 -1        58 1.00000E+00 4.91933E-01 4.00000E+00
 -1        62 1.00000E+00-1.67603E-01 6.00000E+00
 -1        74 1.00000E+00-1.11251E+00 7.00000E+00
 -1       149 4.99871E-01-8.16205E-03 3.99987E+00
 -1       154 2.49935E-01-2.58116E-01 3.99994E+00
 -1       156 2.49935E-01-5.51361E-01 4.99994E+00
 -1       164 7.49935E-01-5.51361E-01 4.99994E+00
 -1       165 5.08263E-01 4.91933E-01 4.00000E+00
 -1       166 5.12412E-01 8.74508E-01 2.00000E+00
 -1       167 0.00000E+00 4.55236E-01 2.74674E+00
 -1       168 0.00000E+00 3.80612E-01 2.06831E+00
 -1       169 7.05762E-01-2.37880E-01 2.74927E+00
 -1       170 1.00000E+00 2.85835E-01 4.72750E+00
 -1       171 1.00000E+00-2.58495E-01 2.86473E+00
 -1       172 1.00000E+00 1.50599E-01 3.61586E+00
 -1       173 0.00000E+00 7.32522E-01 2.91356E+00
 -1       174 1.00000E+00 7.30708E-01 2.92332E+00
 -1       175 1.00000E+00 7.00948E-01 2.11868E+00
 -1       176 4.81412E-01 1.99680E-01 2.39041E+00
 -1       177 5.29483E-01 3.36208E-01 3.36559E+00
 -1       178 7.57184E-01 2.78434E-01 2.78189E+00
 -1       179 8.63559E-01 3.36878E-01 3.75774E+00
 -1       180 7.53430E-01 6.10632E-01 1.95054E+00
 -1       181 5.92501E-01 2.79559E-01 1.92732E+00
 -1       182 3.70065E-01 1.56841E-01 2.75703E+00
 -1       183 5.31529E-01 8.95118E-02 5.31974E+00
 -1       184 1.00000E+00 5.16299E-01 2.49755E+00
 -1       185 1.00000E+00 1.00189E-01 5.28940E+00
 -1       186 1.00000E+00 1.82112E-02 3.90751E+00
 -1       187 1.00000E+00 3.56266E-01 3.20268E+00
 -1       188 4.78119E-01-1.67294E-01 2.30862E+00
 -1       189 0.00000E+00 3.75607E-01 4.42715E+00
 -1       190 7.79440E-01-1.76654E-01 2.37198E+00
 -1       191 1.00000E+00-3.63747E-01 3.39165E+00
 -1       192 0.00000E+00 3.05552E-01 2.33791E+00
 -1       193 1.00000E+00 6.26756E-01 3.43510E+00
 -1       194 5.94324E-01 4.24655E-01 4.25296E+00
 -1       195 1.00000E+00-1.81584E-01 2.40465E+00
 -1       196 4.14649E-01 7.57101E-01 2.77784E+00
 -1       197 0.00000E+00 5.94850E-01 2.40698E+00
 -1       198 6.47512E-01 8.14378E-01 2.43107E+00
 -1       199 0.00000E+00 4.79765E-01 3.28570E+00
 -1       200 0.00000E+00 8.13327E-01 2.43789E+00
 -1       201 0.00000E+00 6.26949E-01 3.43422E+00
 -1       202 1.00000E+00 4.07195E-01 4.31587E+00
 -1       203 1.00000E+00 8.13184E-01 2.43882E+00
 -1       204 5.04114E-01-1.25492E-01 2.00000E+00
 -1       205 3.02565E-01 2.53195E-01 2.20263E+00
 -1       206 4.06630E-01 6.15644E-01 2.38202E+00
 -1       207 2.95617E-01 5.97858E-01 2.04568E+00
 -1       208 7.48071E-01 4.23711E-01 2.22581E+00
 -1       209 3.00850E-01 7.55494E-02 2.07766E+00
 -1       210 3.56714E-01 5.41612E-01 2.98840E+00
 -1       211 2.71311E-01 5.52918E-01 2.66263E+00
 -1       212 7.93959E-01 1.25088E-01 2.18796E+00
 -1       213 7.95045E-01 5.32164E-01 3.04905E+00
 -1       214 7.50503E-01 7.63033E-01 2.74404E+00
 -1       215 4.47570E-01 2.87914E-01 4.72078E+00
 -1       216 1.00000E+00 1.57086E-02 3.23886E+00
 -1       217 7.91426E-01 8.46374E-01 2.21269E+00
 -1       218 0.00000E+00 4.88143E-01 3.57896E+00
 -1       219 1.00000E+00 1.47324E-01 2.76418E+00
 -1       220 1.00000E+00 2.34913E-02 4.42163E+00
 -1       221 1.00000E+00 7.04787E-01 2.27534E+00
 -1       222 0.00000E+00 1.83989E-01 5.04434E+00
 -1       223 1.00000E+00 1.16537E-01 2.40305E+00
 -1       224 3.66367E-01 5.98338E-01 3.56185E+00
 -1       225 2.92074E-01 6.83528E-01 3.16621E+00
 -1       226 1.90947E-01 7.80731E-01 2.64052E+00
 -1       227 7.11074E-01 5.83246E-01 3.62731E+00
 -1       228 3.28816E-01 8.16042E-01 2.42022E+00
 -1       229 6.64971E-01 6.80472E-01 3.18128E+00
 -1       230 8.32266E-01-3.02603E-01 3.09686E+00
 -1       231 8.53370E-01 1.32736E-01 4.25780E+00
 -1       232 1.66868E-01 8.45339E-01 2.22010E+00
 -1       233 1.00000E+00 3.89832E-01 2.03828E+00
 -1       234 7.87270E-01 6.20431E-02 2.05621E+00
 -1       235 8.30326E-01-2.95090E-04 4.68500E+00
 -1       236 2.38176E-01-1.16223E-03 2.31913E+00
 -1       237 8.93635E-01 3.10216E-02 1.02810E+00
 -1       238 1.00000E+00 1.94916E-01 1.01914E+00
 -1       239 6.47808E-01 2.98929E-01 1.02284E+00
 -1       240 7.52057E-01-3.14044E-02 1.00197E+00
 -1       241 7.96251E-01 1.39779E-01 9.63660E-01
 -1       242 8.76715E-01 3.05316E-01 9.75268E-01
 -1       243 1.00000E+00-3.14044E-02 1.00197E+00
 -1       244 1.50425E-01 3.77747E-02 1.03883E+00
 -1       245 1.47809E-01 2.98929E-01 1.02284E+00
 -1       246 2.52057E-01-3.14044E-02 1.00197E+00
 -1       247 2.96251E-01 1.39779E-01 9.63660E-01
 -1       248 0.00000E+00 1.90306E-01 1.03415E+00
 -1       249 0.00000E+00-3.14044E-02 1.00197E+00
 -1       250 1.00000E+00 6.94916E-01 1.01914E+00
 -1       251 6.47808E-01 7.98929E-01 1.02284E+00
 -1       252 8.76715E-01 8.05316E-01 9.75268E-01
 -1       253 7.56206E-01 9.68595E-01 1.00197E+00
 -1       254 1.00000E+00 9.68595E-01 1.00197E+00
 -1       255 1.47809E-01 7.98929E-01 1.02284E+00
 -1       256 0.00000E+00 6.90306E-01 1.03415E+00
 -1       257 2.56206E-01 9.68595E-01 1.00197E+00
 -1       258 0.00000E+00 9.68595E-01 1.00197E+00
 -1       259 1.00000E+00-6.20823E-01 7.01702E+00
 -1       260 5.00000E-01-6.20823E-01 7.01702E+00
 -1       261 5.00000E-01-1.15559E+00 7.00000E+00
 -1       262 0.00000E+00-6.20823E-01 7.01702E+00
 -1       263 8.93635E-01-3.17244E-02 2.02810E+00
 -1       264 1.00000E+00 1.32170E-01 2.01914E+00
 -1       265 1.00000E+00-4.47731E-03 2.20153E+00
 -1       266 8.96979E-01-2.02181E-04 2.09398E+00
 -1       267 7.52057E-01-1.25492E-01 2.00000E+00
 -1       268 1.00000E+00-1.52212E-01 2.20251E+00
 -1       269 8.89720E-01-1.49952E-01 2.18614E+00
 -1       270 1.19088E-01-6.33271E-02 2.15957E+00
 -1       271 1.50425E-01-2.49713E-02 2.03883E+00
 -1       272 1.51283E-01 6.38516E-02 2.10132E+00
 -1       273 2.52057E-01-1.25492E-01 2.00000E+00
 -1       274 0.00000E+00 9.00299E-02 2.16895E+00
 -1       275 2.39059E-01-1.45621E-01 2.15441E+00
 -1       276 0.00000E+00 1.27560E-01 2.03415E+00
 -1       277 0.00000E+00-2.84935E-01 3.00610E+00
 -1       278 9.15163E-01-2.54181E-01 4.34250E+00
 -1       279 7.65765E-01-2.09278E-01 4.65987E+00
 -1       280 9.26685E-01-1.87666E-01 4.12890E+00
 -1       281 1.00000E+00-2.42288E-01 4.21082E+00
 -1       282 1.00000E+00-4.33015E-01 3.69651E+00
 -1       283 1.00000E+00-2.44928E-01 3.95376E+00
 -1       284 1.00000E+00-8.04909E-01 5.01088E+00
 -1       285 7.49936E-01-2.58115E-01 3.99993E+00
 -1       286 5.00000E-01-5.08067E-01 4.00000E+00
 -1       287 1.19088E-01-2.54615E-01 3.15957E+00
 -1       288 4.16133E-01-3.98935E-01 3.54989E+00
 -1       289 0.00000E+00-1.62039E-01 4.52217E+00
 -1       290 0.00000E+00-9.96208E-03 3.78948E+00
 -1       291 2.23785E-01-1.10076E-01 4.36039E+00
 -1       292 0.00000E+00-1.41510E-02 3.64285E+00
 -1       293 0.00000E+00-1.01258E-01 3.16895E+00
 -1       294 5.00000E-01-4.33015E-01 3.69651E+00
 -1       295 0.00000E+00-6.62301E-02 4.21358E+00
 -1       296 2.39059E-01-3.14993E-01 3.15889E+00
 -1       297 2.65765E-01-2.09278E-01 4.65987E+00
 -1       298 1.85033E-01-1.75613E-01 3.37851E+00
 -1       299 2.64742E-01-8.59296E-02 3.68279E+00
 -1       300 3.52881E-01-3.60639E-01 3.37730E+00
 -1       301 0.00000E+00-2.64156E-02 3.37337E+00
 -1       302 0.00000E+00-8.06700E-03 4.00000E+00
 -1       303 9.15163E-01-5.83948E-01 5.34250E+00
 -1       304 1.00000E+00-5.72054E-01 5.21082E+00
 -1       305 1.00000E+00-5.33705E-01 5.64470E+00
 -1       306 7.65765E-01-5.39044E-01 5.65987E+00
 -1       307 1.00000E+00-6.67602E-01 6.00000E+00
 -1       308 0.00000E+00-4.91806E-01 5.52217E+00
 -1       309 2.65765E-01-5.39044E-01 5.65987E+00
 -1       310 5.00000E-01-6.67602E-01 6.00000E+00
 -1       311 0.00000E+00-6.67602E-01 6.00000E+00
 -1       312 8.34341E-02 8.60316E-01 2.11010E+00
 -1       313 1.47809E-01 7.36183E-01 2.02284E+00
 -1       314 0.00000E+00 8.45470E-01 2.21916E+00
 -1       315 0.00000E+00 7.34679E-01 2.20349E+00
 -1       316 0.00000E+00 6.27560E-01 2.03415E+00
 -1       317 2.56206E-01 8.74508E-01 2.00000E+00
 -1       318 1.83183E-01 5.46631E-01 3.78129E+00
 -1       319 0.00000E+00 4.90038E-01 3.78948E+00
 -1       320 0.00000E+00 5.61941E-01 3.71771E+00
 -1       321 2.97162E-01 4.58840E-01 4.12662E+00
 -1       322 0.00000E+00 4.35321E-01 4.21400E+00
 -1       323 2.54132E-01 4.91933E-01 4.00000E+00
 -1       324 2.49935E-01 2.41885E-01 3.99993E+00
 -1       325 0.00000E+00 1.55361E-02 5.52488E+00
 -1       326 2.65765E-01-3.53490E-02 5.66127E+00
 -1       327 5.00000E-01-1.67603E-01 6.00000E+00
 -1       328 1.00000E+00 6.32170E-01 2.01914E+00
 -1       329 1.00000E+00 7.89647E-01 2.13767E+00
 -1       330 8.95713E-01 8.60808E-01 2.10639E+00
 -1       331 1.00000E+00 8.45405E-01 2.21963E+00
 -1       332 8.76715E-01 7.42570E-01 1.97527E+00
 -1       333 1.00000E+00 8.74508E-01 2.00000E+00
 -1       334 7.56206E-01 8.74508E-01 2.00000E+00
 -1       335 8.55537E-01 5.38671E-01 3.81392E+00
 -1       336 1.00000E+00 4.50414E-01 4.15816E+00
 -1       337 7.97162E-01 4.58840E-01 4.12662E+00
 -1       338 1.00000E+00 5.61836E-01 3.71814E+00
 -1       339 1.00000E+00 2.55072E-01 3.95376E+00
 -1       340 9.31780E-01 4.14406E-01 3.87887E+00
 -1       341 1.00000E+00 3.21266E-01 3.80793E+00
 -1       342 7.54132E-01 4.91933E-01 4.00000E+00
 -1       343 1.00000E+00-2.96702E-02 5.64622E+00
 -1       344 7.65765E-01-3.53490E-02 5.66127E+00
 -1       345 7.49936E-01 7.66465E-03 4.21075E+00
 -1       346 6.65098E-01-4.22857E-03 4.34244E+00
 -1       347 6.76621E-01 6.22867E-02 4.12883E+00
 -1       348 6.66069E-01-1.55383E-01 3.54836E+00
 -1       349 4.33119E-01 2.95088E-01 3.78086E+00
 -1       350 2.49935E-01 2.39990E-01 3.78941E+00
 -1       351 7.49936E-01 3.77326E-03 3.61937E+00
 -1       352 4.73720E-01 1.39876E-01 4.36033E+00
 -1       353 5.47097E-01 2.08246E-01 4.12641E+00
 -1       354 7.49936E-01-1.85955E-01 3.69576E+00
 -1       355 2.49935E-01 1.83722E-01 4.21351E+00
 -1       356 7.49936E-01 5.02460E-03 3.95369E+00
 -1       357 5.15700E-01 4.06749E-02 4.65980E+00
 -1       358 6.81715E-01 1.64358E-01 3.87881E+00
 -1       359 5.14677E-01 1.64023E-01 3.68273E+00
 -1       360 7.49936E-01 7.12184E-02 3.80786E+00
 -1       361 5.04067E-01 2.41885E-01 3.99993E+00
 -1       362 6.09669E-01 5.38671E-01 3.81392E+00
 -1       363 4.37315E-01 5.46631E-01 3.78129E+00
 -1       364 5.51293E-01 4.58840E-01 4.12662E+00
 -1       365 6.85911E-01 4.14406E-01 3.87887E+00
 -1       366 5.18873E-01 4.14070E-01 3.68279E+00
 -1       367 3.39640E-01 8.60316E-01 2.11010E+00
 -1       368 4.20614E-01 8.46705E-01 2.21031E+00
 -1       369 6.51919E-01 8.60808E-01 2.10639E+00
 -1       370 4.04014E-01 7.36183E-01 2.02284E+00
 -1       371 4.59521E-01 7.45076E-01 2.19101E+00
 -1       372 5.79962E-01 8.45947E-01 2.21574E+00
 -1       373 6.32921E-01 7.42570E-01 1.97527E+00
 -1       374 1.35656E-01 5.04077E-01 2.70469E+00
 -1       375 1.78357E-01 4.98424E-01 2.86757E+00
 -1       376 0.00000E+00 4.67500E-01 3.01622E+00
 -1       377 0.00000E+00 5.25043E-01 2.57686E+00
 -1       378 0.00000E+00 3.80394E-01 2.54233E+00
 -1       379 1.85033E-01 3.06038E-01 2.75188E+00
 -1       380 2.40706E-01 3.27458E-01 2.56858E+00
 -1       381 0.00000E+00 5.93879E-01 2.83015E+00
 -1       382 8.34341E-02 6.12975E-01 2.14420E+00
 -1       383 1.50425E-01 2.28081E-01 2.07298E+00
 -1       384 1.47809E-01 4.89235E-01 2.05699E+00
 -1       385 1.51283E-01 3.16904E-01 2.13547E+00
 -1       386 0.00000E+00 4.87731E-01 2.23764E+00
 -1       387 0.00000E+00 3.43082E-01 2.20311E+00
 -1       388 2.96251E-01 3.30085E-01 1.99781E+00
 -1       389 4.71969E-01-1.19521E-01 2.53420E+00
 -1       390 7.69014E-01-2.69278E-01 2.92324E+00
 -1       391 8.52881E-01-4.52784E-02 2.75673E+00
 -1       392 7.42601E-01-2.06123E-01 2.56081E+00
 -1       393 5.91940E-01-2.01025E-01 2.52920E+00
 -1       394 5.37914E-01-4.05197E-02 2.75315E+00
 -1       395 7.31473E-01 2.02768E-02 2.76558E+00
 -1       396 5.93587E-01-1.91004E-02 2.56984E+00
 -1       397 8.52881E-01-2.48081E-01 2.80702E+00
 -1       398 9.15163E-01 1.42770E-01 4.70625E+00
 -1       399 9.26685E-01 2.09285E-01 4.49265E+00
 -1       400 1.00000E+00 1.54663E-01 4.57457E+00
 -1       401 7.23785E-01 2.86875E-01 4.72414E+00
 -1       402 1.00000E+00 3.47938E-01 4.52210E+00
 -1       403 7.97162E-01 3.57139E-01 4.49078E+00
 -1       404 1.00000E+00 1.95611E-01 5.00931E+00
 -1       405 7.65765E-01 1.90559E-01 5.02457E+00
 -1       406 9.16133E-01-2.80120E-01 2.98088E+00
 -1       407 1.00000E+00-5.55856E-02 2.81446E+00
 -1       408 1.00000E+00-1.21393E-01 3.05180E+00
 -1       409 1.00000E+00-2.18340E-01 2.63497E+00
 -1       410 1.00000E+00-3.08917E-01 3.12863E+00
 -1       411 8.89720E-01-2.15624E-01 2.61868E+00
 -1       412 8.78592E-01 9.96958E-03 2.82331E+00
 -1       413 1.00000E+00 8.31537E-02 3.42736E+00
 -1       414 1.00000E+00 3.88677E-01 3.52548E+00
 -1       415 1.00000E+00-1.06574E-01 3.50375E+00
 -1       416 1.00000E+00 2.53433E-01 3.40927E+00
 -1       417 1.00000E+00 8.44051E-02 3.76168E+00
 -1       418 9.31780E-01 2.43738E-01 3.68680E+00
 -1       419 9.54737E-02 7.57223E-01 2.77715E+00
 -1       420 1.46037E-01 7.08533E-01 3.03998E+00
 -1       421 1.35656E-01 6.42720E-01 2.78809E+00
 -1       422 1.78357E-01 6.37067E-01 2.95098E+00
 -1       423 0.00000E+00 6.81885E-01 3.17432E+00
 -1       424 0.00000E+00 7.74740E-01 2.67603E+00
 -1       425 0.00000E+00 6.06144E-01 3.09963E+00
 -1       426 0.00000E+00 6.63686E-01 2.66027E+00
 -1       427 2.07324E-01 7.44959E-01 2.84573E+00
 -1       428 8.32486E-01 7.06119E-01 3.05241E+00
 -1       429 1.00000E+00 4.39016E-01 2.84375E+00
 -1       430 8.75252E-01 7.47127E-01 2.83373E+00
 -1       431 8.97522E-01 6.31436E-01 2.98618E+00
 -1       432 1.00000E+00 7.73829E-01 2.68139E+00
 -1       433 1.00000E+00 6.80808E-01 3.17963E+00
 -1       434 1.00000E+00 5.43487E-01 3.06300E+00
 -1       435 1.00000E+00 6.23503E-01 2.71043E+00
 -1       436 8.78592E-01 5.04571E-01 2.85261E+00
 -1       437 1.00000E+00 5.45390E-01 2.07848E+00
 -1       438 1.00000E+00 4.08743E-01 2.26087E+00
 -1       439 1.00000E+00 7.02867E-01 2.19701E+00
 -1       440 8.96979E-01 4.13018E-01 2.15332E+00
 -1       441 8.74035E-01 5.62329E-01 2.17225E+00
 -1       442 1.00000E+00 6.08623E-01 2.30811E+00
 -1       443 7.96251E-01 4.90253E-01 2.02300E+00
 -1       444 8.76715E-01 6.55790E-01 2.03461E+00
 -1       445 3.59794E-01 9.92587E-02 2.35477E+00
 -1       446 7.40706E-01 1.58108E-01 2.39673E+00
 -1       447 6.37685E-01 1.62384E-01 2.28919E+00
 -1       448 3.76362E-01 3.76299E-01 2.52652E+00
 -1       449 6.14741E-01 3.11695E-01 2.30811E+00
 -1       450 4.44021E-01 4.07662E-01 2.38622E+00
 -1       451 3.91989E-01 2.26437E-01 2.29652E+00
 -1       452 4.92763E-01 3.70938E-02 2.19521E+00
 -1       453 2.40706E-01 3.97265E-01 2.39870E+00
 -1       454 2.40706E-01 2.52616E-01 2.36416E+00
 -1       455 6.30426E-01 1.15126E-02 2.38120E+00
 -1       456 4.79765E-01 1.61928E-02 2.34952E+00
 -1       457 4.25739E-01 1.78260E-01 2.57372E+00
 -1       458 5.36957E-01 2.39619E-01 2.15887E+00
 -1       459 6.19298E-01 2.39057E-01 2.58615E+00
 -1       460 6.80875E-01 1.68023E-02 3.23122E+00
 -1       461 5.97227E-01 5.08340E-01 3.27344E+00
 -1       462 6.20279E-01 4.59727E-01 3.49645E+00
 -1       463 4.10779E-01 5.09868E-01 3.26590E+00
 -1       464 4.47925E-01 4.67273E-01 3.46372E+00
 -1       465 2.64742E-01 4.12175E-01 3.47227E+00
 -1       466 7.64742E-01 1.75958E-01 3.30223E+00
 -1       467 6.62264E-01 4.34186E-01 3.20732E+00
 -1       468 4.43099E-01 4.38910E-01 3.17699E+00
 -1       469 2.64742E-01 4.81578E-01 3.39990E+00
 -1       470 2.64742E-01 4.07986E-01 3.32564E+00
 -1       471 7.64742E-01-1.37696E-02 3.37862E+00
 -1       472 7.64742E-01 3.46237E-01 3.28413E+00
 -1       473 4.49774E-01 2.46524E-01 3.06131E+00
 -1       474 6.96521E-01 3.36543E-01 3.56166E+00
 -1       475 6.43334E-01 3.07321E-01 3.07374E+00
 -1       476 7.94725E-01-1.20847E-02 2.93937E+00
 -1       477 8.78592E-01 1.97486E-01 2.59247E+00
 -1       478 8.78592E-01 2.12879E-01 2.77304E+00
 -1       479 8.78592E-01 1.47071E-01 3.01038E+00
 -1       480 7.53844E-01 5.20733E-01 2.76297E+00
 -1       481 7.76115E-01 4.05299E-01 2.91547E+00
 -1       482 5.14248E-01 4.15676E-01 2.72226E+00
 -1       483 5.56949E-01 4.10023E-01 2.88515E+00
 -1       484 7.52628E-01 3.51072E-01 2.50385E+00
 -1       485 5.81907E-01 4.47039E-01 2.58196E+00
 -1       486 7.02348E-01 5.46406E-01 2.60648E+00
 -1       487 5.85917E-01 5.17767E-01 2.77987E+00
 -1       488 7.68312E-01 5.08898E-02 2.57694E+00
 -1       489 8.78592E-01 3.17350E-01 2.99229E+00
 -1       490 8.78592E-01 3.97366E-01 2.63972E+00
 -1       491 5.63625E-01 2.17637E-01 2.76946E+00
 -1       492 8.58465E-01 2.34807E-01 4.00777E+00
 -1       493 7.87317E-01 4.60062E-01 3.69253E+00
 -1       494 9.31780E-01 1.76293E-01 3.49830E+00
 -1       495 9.31780E-01 3.72037E-01 4.03681E+00
 -1       496 7.28942E-01 3.80766E-01 4.00535E+00
 -1       497 9.31780E-01 4.81817E-01 3.59642E+00
 -1       498 9.31780E-01 3.46572E-01 3.48021E+00
 -1       499 9.31780E-01 1.77545E-01 3.83263E+00
 -1       500 8.89125E-01 5.86955E-01 1.83671E+00
 -1       501 8.76715E-01 6.57709E-01 2.11294E+00
 -1       502 7.72428E-01 7.28503E-01 2.08161E+00
 -1       503 7.50750E-01 5.17171E-01 2.08818E+00
 -1       504 5.24523E-01 6.04245E-01 1.99811E+00
 -1       505 5.80030E-01 6.13138E-01 2.16628E+00
 -1       506 7.00471E-01 7.12505E-01 2.19080E+00
 -1       507 6.72966E-01 4.45095E-01 1.93893E+00
 -1       508 6.89885E-01 1.70801E-01 1.99176E+00
 -1       509 7.96251E-01 3.34695E-01 1.98280E+00
 -1       510 6.93230E-01 2.02323E-01 2.05764E+00
 -1       511 4.46676E-01 1.77554E-01 2.00249E+00
 -1       512 6.70286E-01 3.51635E-01 2.07657E+00
 -1       513 4.44059E-01 4.38708E-01 1.98650E+00
 -1       514 4.99566E-01 4.47601E-01 2.15467E+00
 -1       515 4.47533E-01 2.66377E-01 2.06498E+00
 -1       516 5.48308E-01 7.70333E-02 1.96366E+00
 -1       517 3.04121E-01 7.78394E-02 2.53808E+00
 -1       518 6.01166E-01-7.28811E-02 2.92694E+00
 -1       519 3.20688E-01 3.54879E-01 2.70983E+00
 -1       520 3.63390E-01 3.49226E-01 2.87271E+00
 -1       521 1.85033E-01 3.18303E-01 3.02136E+00
 -1       522 1.85033E-01 2.31196E-01 2.54747E+00
 -1       523 4.24092E-01-5.22652E-03 2.53282E+00
 -1       524 6.80927E-01 4.46083E-02 5.00237E+00
 -1       525 2.65765E-01 1.37370E-01 5.18225E+00
 -1       526 4.89549E-01 1.91664E-01 5.02124E+00
 -1       527 7.65765E-01 9.48581E-02 5.30457E+00
 -1       528 1.00000E+00 3.16418E-01 2.45030E+00
 -1       529 1.00000E+00 6.10543E-01 2.38644E+00
 -1       530 1.00000E+00 3.31811E-01 2.63086E+00
 -1       531 8.75252E-01 6.39666E-01 2.62080E+00
 -1       532 8.74035E-01 4.70005E-01 2.36168E+00
 -1       533 1.00000E+00 6.64741E-01 2.46818E+00
 -1       534 8.23756E-01 6.65338E-01 2.46431E+00
 -1       535 9.15163E-01 4.99472E-02 4.98720E+00
 -1       536 1.00000E+00 6.18404E-02 4.85552E+00
 -1       537 9.26685E-01 7.54734E-02 4.08265E+00
 -1       538 1.00000E+00 2.08513E-02 4.16457E+00
 -1       539 1.00000E+00 2.12703E-01 4.11169E+00
 -1       540 1.00000E+00-1.72768E-01 3.64958E+00
 -1       541 8.32486E-01 5.18369E-01 3.19198E+00
 -1       542 8.55537E-01 4.69756E-01 3.41500E+00
 -1       543 1.00000E+00 2.51795E-01 2.98343E+00
 -1       544 1.00000E+00 1.85987E-01 3.22077E+00
 -1       545 8.97522E-01 4.44215E-01 3.12586E+00
 -1       546 1.00000E+00 4.91511E-01 3.31889E+00
 -1       547 3.58147E-01-8.42281E-02 2.31388E+00
 -1       548 3.89484E-01-4.58723E-02 2.19314E+00
 -1       549 3.90342E-01 4.29506E-02 2.25563E+00
 -1       550 4.91116E-01-1.45621E-01 2.15441E+00
 -1       551 6.28779E-01-1.71942E-01 2.34030E+00
 -1       552 0.00000E+00 2.82970E-01 4.73673E+00
 -1       553 2.23785E-01 3.32483E-01 4.57418E+00
 -1       554 2.97162E-01 4.00388E-01 4.34013E+00
 -1       555 7.83355E-01-5.73056E-02 2.21409E+00
 -1       556 8.89720E-01-3.00585E-02 2.38752E+00
 -1       557 8.89720E-01-1.46654E-02 2.56808E+00
 -1       558 7.86699E-01-2.57833E-02 2.27997E+00
 -1       559 6.41777E-01-1.49952E-01 2.18614E+00
 -1       560 8.89720E-01-1.79110E-01 2.38831E+00
 -1       561 9.16133E-01-3.32488E-01 3.24439E+00
 -1       562 1.00000E+00-1.74019E-01 3.31526E+00
 -1       563 1.19088E-01 1.52195E-01 2.32852E+00
 -1       564 1.51283E-01 2.79373E-01 2.27027E+00
 -1       565 0.00000E+00 4.50201E-01 2.37244E+00
 -1       566 8.32486E-01 6.54123E-01 3.30830E+00
 -1       567 8.55537E-01 6.05291E-01 3.53127E+00
 -1       568 8.97522E-01 5.79460E-01 3.24207E+00
 -1       569 7.23847E-01 2.78695E-01 4.25538E+00
 -1       570 5.20947E-01 3.58125E-01 4.48741E+00
 -1       571 7.97162E-01 4.15959E-01 4.28442E+00
 -1       572 1.00000E+00-3.25231E-02 2.40385E+00
 -1       573 1.00000E+00-1.71300E-02 2.58441E+00
 -1       574 8.96979E-01-2.82480E-02 2.29630E+00
 -1       575 5.39810E-01 7.20083E-01 2.97981E+00
 -1       576 3.71733E-01 7.87599E-01 2.59920E+00
 -1       577 3.02798E-01 7.69067E-01 2.70921E+00
 -1       578 3.53362E-01 7.21516E-01 2.97225E+00
 -1       579 5.82576E-01 7.60076E-01 2.76094E+00
 -1       580 6.04847E-01 6.44633E-01 2.91344E+00
 -1       581 3.42980E-01 6.55009E-01 2.72023E+00
 -1       582 3.85682E-01 6.49356E-01 2.88312E+00
 -1       583 4.10640E-01 6.86373E-01 2.57993E+00
 -1       584 5.31080E-01 7.86706E-01 2.60461E+00
 -1       585 8.34341E-02 7.20094E-01 2.31354E+00
 -1       586 1.64408E-01 7.05446E-01 2.41360E+00
 -1       587 9.54737E-02 6.87790E-01 2.52375E+00
 -1       588 1.35656E-01 5.73884E-01 2.53480E+00
 -1       589 1.47809E-01 5.96354E-01 2.22633E+00
 -1       590 2.03315E-01 6.05247E-01 2.39450E+00
 -1       591 1.51283E-01 4.24022E-01 2.30480E+00
 -1       592 0.00000E+00 7.04089E-01 2.42243E+00
 -1       593 4.88164E-01 8.15211E-01 2.42564E+00
 -1       594 8.23756E-01 7.59582E-01 2.35320E+00
 -1       595 7.19469E-01 8.30761E-01 2.32193E+00
 -1       596 6.99008E-01 7.89493E-01 2.58768E+00
 -1       597 6.97791E-01 6.19045E-01 2.32844E+00
 -1       598 5.27071E-01 7.15011E-01 2.40654E+00
 -1       599 8.23756E-01 8.13781E-01 2.43494E+00
 -1       600 1.46037E-01 5.81646E-01 3.22596E+00
 -1       601 0.00000E+00 4.83954E-01 3.43233E+00
 -1       602 1.78357E-01 5.10688E-01 3.13705E+00
 -1       603 0.00000E+00 5.53357E-01 3.35996E+00
 -1       604 8.34341E-02 8.29716E-01 2.32905E+00
 -1       605 1.64408E-01 8.14687E-01 2.42905E+00
 -1       606 9.54737E-02 7.97360E-01 2.53926E+00
 -1       607 1.46037E-01 6.55806E-01 3.30033E+00
 -1       608 1.83183E-01 6.12771E-01 3.49806E+00
 -1       609 0.00000E+00 5.57546E-01 3.50659E+00
 -1       610 9.26685E-01 2.69965E-01 4.28684E+00
 -1       611 1.00000E+00 2.15343E-01 4.36875E+00
 -1       612 1.00000E+00 7.58985E-01 2.35708E+00
 -1       613 8.95713E-01 8.30192E-01 2.32581E+00
 -1       614 8.75252E-01 7.88857E-01 2.59155E+00
 -1       615 3.71145E-01-6.33271E-02 2.15957E+00
 -1       616 6.45692E-01-3.17244E-02 2.02810E+00
 -1       617 6.49037E-01-2.02181E-04 2.09398E+00
 -1       618 4.02482E-01-2.49713E-02 2.03883E+00
 -1       619 4.03340E-01 6.38516E-02 2.10132E+00
 -1       620 2.70371E-01 1.26016E-01 2.26088E+00
 -1       621 3.01708E-01 1.64372E-01 2.14015E+00
 -1       622 5.25318E-01 3.38453E-01 2.21422E+00
 -1       623 2.99091E-01 4.25527E-01 2.12415E+00
 -1       624 3.54598E-01 4.34420E-01 2.29233E+00
 -1       625 2.86749E-01 7.30491E-01 2.30106E+00
 -1       626 3.67723E-01 7.15843E-01 2.40112E+00
 -1       627 2.98789E-01 6.98188E-01 2.51127E+00
 -1       628 5.78567E-01 6.89338E-01 2.56303E+00
 -1       629 3.38971E-01 5.84281E-01 2.52232E+00
 -1       630 5.77350E-01 5.19678E-01 2.30392E+00
 -1       631 3.51124E-01 6.06751E-01 2.21385E+00
 -1       632 2.31243E-01 7.21598E-01 2.13289E+00
 -1       633 5.21844E-01 5.10784E-01 2.13575E+00
 -1       634 8.74035E-01 2.70124E-01 2.31443E+00
 -1       635 8.74035E-01 5.64249E-01 2.25057E+00
 -1       636 7.71015E-01 2.74399E-01 2.20688E+00
 -1       637 2.69513E-01 3.71936E-02 2.19840E+00
 -1       638 5.10843E-01 6.11042E-01 3.08484E+00
 -1       639 3.24394E-01 6.12570E-01 3.07731E+00
 -1       640 5.75880E-01 5.36888E-01 3.01872E+00
 -1       641 3.14013E-01 5.47265E-01 2.82551E+00
 -1       642 2.31129E-01 6.66824E-01 2.65158E+00
 -1       643 7.90614E-01 9.35654E-02 2.12208E+00
 -1       644 8.96979E-01 2.57460E-01 2.11312E+00
 -1       645 8.96979E-01 1.20813E-01 2.29550E+00
 -1       646 7.30008E-01 6.06318E-01 3.11517E+00
 -1       647 8.97522E-01 2.73936E-01 3.14396E+00
 -1       648 7.72774E-01 6.47598E-01 2.89655E+00
 -1       649 7.07737E-01 7.23276E-01 2.96295E+00
 -1       650 6.38948E-01 1.43810E-01 4.70289E+00
 -1       651 6.50470E-01 2.10325E-01 4.48929E+00
 -1       652 2.23785E-01 2.36818E-01 4.88284E+00
 -1       653 9.16133E-01-1.43447E-01 3.16786E+00
 -1       654 1.00000E+00 8.15160E-02 3.00152E+00
 -1       655 8.95713E-01 7.75580E-01 2.24401E+00
 -1       656 1.83183E-01 5.43240E-01 3.57040E+00
 -1       657 9.16133E-01-7.76399E-02 2.93052E+00
 -1       658 1.00000E+00 1.31930E-01 2.58362E+00
 -1       659 9.15163E-01 1.15981E-02 4.55332E+00
 -1       660 9.26685E-01 7.81134E-02 4.33972E+00
 -1       661 1.00000E+00 2.53185E-01 2.22067E+00
 -1       662 5.15669E-01 6.40547E-01 3.37181E+00
 -1       663 5.38721E-01 5.90825E-01 3.59459E+00
 -1       664 3.29221E-01 6.42167E-01 3.36430E+00
 -1       665 4.78523E-01 6.82001E-01 3.17375E+00
 -1       666 2.59882E-01 7.98777E-01 2.53043E+00
 -1       667 6.88023E-01 6.33426E-01 3.40464E+00
 -1       668 2.47842E-01 8.31014E-01 2.32021E+00
 -1       669 8.41848E-01 6.62202E-02 4.47140E+00
 -1       670 8.93635E-01 2.25938E-01 2.04724E+00
 -3
    3C                           293                                     1
 -1         1    6    0    1
 -2       178       184       219       223       490       530       478       477       528       658
 -1         2    6    0    1
 -2       196       206       211       226       583       629       581       577       627       642
 -1         3    6    0    1
 -2       204       190        19       234       559       269       267       616       555       263
 -1         4    6    0    1
 -2        34        48        62       183       311       327       310       309       326       344
 -1         5    6    0    1
 -2       181       180         1       207       507       242       241       513       504       239
 -1         6    6    0    1
 -2       182       167        28       199       379       301       298       521       376       292
 -1         7    6    0    1
 -2        22       168       192       205       276       387       274       272       385       564
 -1         8    6    0    1
 -2       205       181       168       207       515       388       385       623       513       384
 -1         9    6    0    1
 -2        34        16        11        48        52        17       261       311       262       260
 -1        10    6    0    1
 -2        11        62        31        34       259       307        74       261       310        35
 -1        11    6    0    1
 -2        12        11        34        16        14       261        39        18        17        52
 -1        12    6    0    1
 -2       170       194       202       231       403       571       402       399       569       610
 -1        13    6    0    1