    1C
    1UUSER                                                              
    1UDATE              22.april.2025                                   
    1UTIME              17:12:20                                        
    1UHOST                                                              
    1UPGM               CalculiX                                        
    1UVERSION           Version DEVELOPMENT                             
    1UCOMPILETIME       Tue Apr 22 15:45:42 CEST 2025                    
    1UDIR                                                               
    1UDBN                                                               
    1UMAT    1EL                                                        
    2C                           827                                     1
 -1         1 1.00000E+00 0.00000E+00 0.00000E+00
 -1         2 0.00000E+00 0.00000E+00 0.00000E+00
 -1         3 1.00000E+00 1.00000E+00 0.00000E+00
 -1         4 5.00000E-01 0.00000E+00 0.00000E+00
 -1         5 5.00000E-01 5.00000E-01 0.00000E+00
 -1         6 1.00000E+00 5.00000E-01 0.00000E+00
 -1         7 0.00000E+00 1.00000E+00 0.00000E+00
 -1         8 0.00000E+00 5.00000E-01 0.00000E+00
 -1         9 5.00000E-01 1.00000E+00 0.00000E+00
 -1        10 1.00000E+00-2.14359E+00 8.00000E+00
 -1        11 1.00000E+00-1.14359E+00 8.00000E+00
 -1        12 0.00000E+00-2.14359E+00 8.00000E+00
 -1        13 1.00000E+00-1.64359E+00 8.00000E+00
 -1        14 5.00000E-01-1.64359E+00 8.00000E+00
 -1        15 5.00000E-01-2.14359E+00 8.00000E+00
 -1        16 0.00000E+00-1.14359E+00 8.00000E+00
 -1        17 5.00000E-01-1.14359E+00 8.00000E+00
 -1        18 0.00000E+00-1.64359E+00 8.00000E+00
 -1        19 1.00000E+00-1.25492E-01 2.00000E+00
 -1        22 0.00000E+00-1.25492E-01 2.00000E+00
 -1        25 1.00000E+00-5.08067E-01 4.00000E+00
 -1        28 0.00000E+00-5.08067E-01 4.00000E+00
 -1        31 1.00000E+00-1.16760E+00 6.00000E+00
 -1        34 0.00000E+00-1.16760E+00 6.00000E+00
 -1        40 0.00000E+00 8.74508E-01 2.00000E+00
 -1        44 0.00000E+00 4.91933E-01 4.00000E+00
 -1        48 0.00000E+00-1.67603E-01 6.00000E+00
 -1        54 1.00000E+00 8.74508E-01 2.00000E+00
 -1        58 1.00000E+00 4.91933E-01 4.00000E+00
 -1        62 1.00000E+00-1.67603E-01 6.00000E+00
 -1       149 5.49939E-01-1.17863E-01 3.78088E+00
 -1       165 0.00000E+00-6.36290E-01 4.46825E+00
 -1       166 5.12738E-01-5.08067E-01 4.00000E+00
 -1       167 5.12401E-01 8.74508E-01 2.00000E+00
 -1       168 0.00000E+00-2.56960E-01 2.85630E+00
 -1       169 1.00000E+00 2.30837E-01 2.91907E+00
 -1       170 0.00000E+00 2.28736E-01 2.40280E+00
 -1       171 5.08241E-01 4.91933E-01 4.00000E+00
 -1       172 1.00000E+00-2.64325E-01 2.89652E+00
 -1       173 1.00000E+00 7.28539E-01 2.93494E+00
 -1       174 1.00000E+00-2.81839E-01 4.93444E+00
 -1       175 1.00000E+00 2.83563E-01 4.73482E+00
 -1       176 1.00000E+00 6.80198E-02 3.95917E+00
 -1       177 0.00000E+00 2.80949E-01 4.74324E+00
 -1       178 1.00000E+00-6.89839E-01 4.64825E+00
 -1       179 0.00000E+00 7.32272E-01 2.91491E+00
 -1       180 0.00000E+00 2.73786E-01 3.59731E+00
 -1       181 1.00000E+00 5.36003E-01 2.21649E+00
 -1       182 5.54016E-01 4.21305E-01 2.37447E+00
 -1       183 5.46544E-01 4.33658E-01 2.88415E+00
 -1       184 3.50052E-01-5.62935E-02 4.27634E+00
 -1       185 5.98466E-01-3.36744E-01 5.41026E+00
 -1       186 7.33332E-01-3.06312E-01 4.38933E+00
 -1       187 5.51077E-01-5.00868E-01 4.98309E+00
 -1       188 7.36795E-01 2.31352E-01 3.87089E+00
 -1       189 6.60286E-01 5.48073E-01 2.21127E+00
 -1       190 2.22733E-01 2.98297E-01 3.79566E+00
 -1       191 0.00000E+00 5.32504E-01 2.22264E+00
 -1       192 0.00000E+00 6.93181E-02 3.19632E+00
 -1       193 0.00000E+00 9.10082E-02 4.09305E+00
 -1       194 1.00000E+00-8.84227E-01 5.24479E+00
 -1       195 0.00000E+00 4.63383E-01 2.60455E+00
 -1       196 1.00000E+00-1.41599E-01 4.42084E+00
 -1       197 0.00000E+00-3.69694E-01 5.23009E+00
 -1       198 0.00000E+00-1.81247E-01 2.40243E+00
 -1       199 3.55862E-01 8.12436E-01 2.44367E+00
 -1       200 0.00000E+00 8.13593E-01 2.43617E+00
 -1       201 1.00000E+00 3.06895E-02 3.36161E+00
 -1       202 1.00000E+00-1.83725E-01 2.41869E+00
 -1       203 1.00000E+00 4.61697E-01 2.61725E+00
 -1       204 5.02057E-01-1.25492E-01 2.00000E+00
 -1       205 0.00000E+00 3.98322E-01 4.34746E+00
 -1       206 1.00000E+00-3.67995E-01 3.41115E+00
 -1       207 1.00000E+00 6.25443E-01 3.44106E+00
 -1       208 1.00000E+00 8.87697E-02 2.26041E+00
 -1       209 6.74428E-01-5.92601E-01 4.31514E+00
 -1       210 1.00000E+00-3.05549E-01 5.37832E+00
 -1       211 3.53919E-01 6.25560E-01 3.44053E+00
 -1       212 5.03762E-01-2.71140E-01 2.93322E+00
 -1       213 1.00000E+00 1.10272E-01 5.26059E+00
 -1       214 4.57622E-01 2.77612E-01 4.75395E+00
 -1       215 6.24847E-01 7.59792E-01 2.76256E+00
 -1       216 0.00000E+00 4.26966E-01 3.20848E+00
 -1       217 0.00000E+00-1.36141E-01 3.74592E+00
 -1       218 6.81566E-01 4.03109E-01 4.33045E+00
 -1       219 3.53769E-01-3.63296E-01 3.38957E+00
 -1       220 1.00000E+00 4.06529E-01 4.31825E+00
 -1       221 0.00000E+00-3.62005E-01 3.38362E+00
 -1       222 0.00000E+00 1.05097E-01 5.27540E+00
 -1       223 0.00000E+00 6.25841E-01 3.43925E+00
 -1       224 1.00000E+00 8.12297E-01 2.44457E+00
 -1       225 4.06647E-01 6.27141E-01 2.68367E+00
 -1       226 7.63338E-01 5.89729E-01 2.63078E+00
 -1       227 3.03724E-01 1.35492E-01 2.20019E+00
 -1       228 7.32296E-01-6.27263E-02 2.84873E+00
 -1       229 2.75232E-01 2.95127E-01 4.24562E+00
 -1       230 5.03102E-01 3.79120E-01 2.00000E+00
 -1       231 4.96150E-01-1.36655E-02 2.63952E+00
 -1       232 2.70046E-01 2.22336E-01 3.35671E+00
 -1       233 5.94870E-01 6.26515E-01 2.31213E+00
 -1       234 2.55330E-01 4.41972E-01 3.03564E+00
 -1       235 6.48705E-01-5.85345E-02 3.23789E+00
 -1       236 1.00000E+00 3.28542E-01 3.58005E+00
 -1       237 8.38377E-01 7.83498E-01 2.62396E+00
 -1       238 1.00000E+00 4.00330E-01 3.19578E+00
 -1       239 0.00000E+00 4.06156E-01 2.93672E+00
 -1       240 4.87580E-01-3.15019E-02 5.65108E+00
 -1       241 7.90875E-01 6.77788E-01 3.19446E+00
 -1       242 1.78817E-01 5.61838E-01 3.71814E+00
 -1       243 7.56987E-01 5.60405E-01 3.72414E+00
 -1       244 1.00000E+00-2.04655E-01 3.67983E+00
 -1       245 0.00000E+00-2.57625E-01 4.47506E+00
 -1       246 1.00000E+00 4.70593E-01 2.05726E+00
 -1       247 2.18670E-01 7.60285E-01 2.75975E+00
 -1       248 7.08470E-01-4.11042E-01 3.60268E+00
 -1       249 3.61638E-01-1.70222E-01 2.32863E+00
 -1       250 0.00000E+00 1.80220E-01 2.20750E+00
 -1       251 1.00000E+00 9.63674E-02 2.52118E+00
 -1       252 7.14868E-01-1.62196E-01 2.27333E+00
 -1       253 7.24047E-01 8.23135E-01 2.37338E+00
 -1       254 7.02578E-01-2.23879E-01 2.66789E+00
 -1       255 7.14971E-01-3.10335E-01 3.13572E+00
 -1       256 2.49907E-01-2.28958E-01 2.69771E+00
 -1       257 0.00000E+00 4.92043E-02 2.75883E+00
 -1       258 2.02664E-01 6.93671E-01 3.11565E+00
 -1       259 2.20296E-01 8.46103E-01 2.21462E+00
 -1       260 2.49493E-01-1.25171E-01 2.84226E+00
 -1       261 1.55605E-01 4.93839E-02 2.42704E+00
 -1       262 2.74754E-01 6.86250E-01 2.11121E+00
 -1       263 7.59872E-01 4.28639E-01 3.30965E+00
 -1       264 2.58547E-01 4.52372E-01 2.19589E+00
 -1       265 7.35913E-01 6.62109E-01 2.07358E+00
 -1       266 1.77769E-01 5.62271E-01 2.34890E+00
 -1       267 1.21992E-01-8.08727E-02 3.56287E+00
 -1       268 6.50633E-01 1.81399E-01 2.23711E+00
 -1       269 2.51179E-01 6.27167E-01 2.00001E+00
 -1       270 4.35664E-01 7.05176E-01 3.05724E+00
 -1       271 0.00000E+00 5.80884E-01 2.06476E+00
 -1       272 1.00000E+00 2.18624E-01 2.09589E+00
 -1       273 4.93012E-01-7.98004E-01 4.98995E+00
 -1       274 2.52985E-01 1.28254E-01 2.00000E+00
 -1       275 7.75382E-01 6.26601E-02 2.08588E+00
 -1       276 0.00000E+00-8.97139E-01 5.28178E+00
 -1       277 0.00000E+00 4.17695E-01 2.02941E+00
 -1       278 8.87691E-01 3.13300E-02 1.04294E+00
 -1       279 6.26493E-01 6.41268E-02 9.99999E-01
 -1       280 1.00000E+00 1.09312E-01 1.04794E+00
 -1       281 8.67956E-01 3.31054E-01 1.03679E+00
 -1       282 1.00000E+00 2.35297E-01 1.02863E+00
 -1       283 7.51551E-01 1.89560E-01 1.00000E+00
 -1       284 7.51029E-01-3.14044E-02 1.00197E+00
 -1       285 1.00000E+00-3.14044E-02 1.00197E+00
 -1       286 0.00000E+00 2.08847E-01 1.01470E+00
 -1       287 1.26493E-01 6.41268E-02 9.99999E-01
 -1       288 1.25590E-01 3.13583E-01 1.00000E+00
 -1       289 2.51551E-01 1.89560E-01 1.00000E+00
 -1       290 2.51029E-01-3.14044E-02 1.00197E+00
 -1       291 0.00000E+00-3.14044E-02 1.00197E+00
 -1       292 8.67956E-01 8.31055E-01 1.03679E+00
 -1       293 1.00000E+00 7.35296E-01 1.02863E+00
 -1       294 7.51551E-01 6.89560E-01 1.00000E+00
 -1       295 7.56201E-01 9.68595E-01 1.00197E+00
 -1       296 1.00000E+00 9.68595E-01 1.00197E+00
 -1       297 0.00000E+00 7.08847E-01 1.01470E+00
 -1       298 1.25590E-01 8.13583E-01 1.00000E+00
 -1       299 2.51551E-01 6.89560E-01 1.00000E+00
 -1       300 2.56201E-01 9.68595E-01 1.00197E+00
 -1       301 0.00000E+00 9.68595E-01 1.00197E+00
 -1       302 1.00000E+00-1.62083E+00 7.01702E+00
 -1       303 5.00000E-01-1.62083E+00 7.01702E+00
 -1       304 1.00000E+00-1.15559E+00 7.00000E+00
 -1       305 1.00000E+00-6.20823E-01 7.01702E+00
 -1       306 5.00000E-01-6.20823E-01 7.01702E+00
 -1       307 5.00000E-01-1.15559E+00 7.00000E+00
 -1       308 0.00000E+00-1.62083E+00 7.01702E+00
 -1       309 0.00000E+00-6.20823E-01 7.01702E+00
 -1       310 0.00000E+00-1.15559E+00 7.00000E+00
 -1       311 8.87691E-01-3.14160E-02 2.04294E+00
 -1       312 1.00000E+00 4.65659E-02 2.04794E+00
 -1       313 8.57434E-01-1.43238E-01 2.13675E+00
 -1       314 1.00000E+00-1.83612E-02 2.13021E+00
 -1       315 7.51029E-01-1.25492E-01 2.00000E+00
 -1       316 1.00000E+00-1.53189E-01 2.20954E+00
 -1       317 0.00000E+00 1.46101E-01 2.01470E+00
 -1       318 1.26493E-01 1.38080E-03 2.00000E+00
 -1       319 7.78024E-02-3.80541E-02 2.21352E+00
 -1       320 0.00000E+00 2.73639E-02 2.10375E+00
 -1       321 1.80819E-01-1.46982E-01 2.16444E+00
 -1       322 1.51862E-01 5.00006E-03 2.10009E+00
 -1       323 2.51029E-01-1.25492E-01 2.00000E+00
 -1       324 0.00000E+00-1.52058E-01 2.20140E+00
 -1       325 8.54235E-01-4.58325E-01 3.80164E+00
 -1       326 1.00000E+00-3.56361E-01 3.83991E+00
 -1       327 8.37214E-01-5.49488E-01 4.15780E+00
 -1       328 1.00000E+00-4.35322E-01 3.70622E+00
 -1       329 1.00000E+00-3.24833E-01 4.21042E+00
 -1       330 8.66666E-01-4.07189E-01 4.19466E+00
 -1       331 1.00000E+00-5.95397E-01 4.32512E+00
 -1       332 1.00000E+00-2.20024E-01 3.97958E+00
 -1       333 7.56369E-01-5.08067E-01 4.00000E+00
 -1       334 7.74970E-01-3.12965E-01 3.89044E+00
 -1       335 0.00000E+00-3.82846E-01 4.23753E+00
 -1       336 0.00000E+00-4.32067E-01 3.69251E+00
 -1       337 1.76885E-01-4.32770E-01 3.69547E+00
 -1       338 0.00000E+00-3.22104E-01 3.87296E+00
 -1       339 0.00000E+00-2.08529E-01 4.04652E+00
 -1       340 1.75026E-01-2.82180E-01 4.13817E+00
 -1       341 2.56369E-01-5.08067E-01 4.00000E+00
 -1       342 0.00000E+00-5.70316E-01 4.23464E+00
 -1       343 5.00000E-01-1.02825E+00 5.64245E+00
 -1       344 1.00000E+00-1.02135E+00 5.62411E+00
 -1       345 7.99233E-01-7.52172E-01 5.70513E+00
 -1       346 5.00000E-01-1.16760E+00 6.00000E+00
 -1       347 1.00000E+00-6.67602E-01 6.00000E+00
 -1       348 0.00000E+00-1.02825E+00 5.64245E+00
 -1       349 2.99233E-01-7.52172E-01 5.70513E+00
 -1       350 5.00000E-01-6.67602E-01 6.00000E+00
 -1       351 0.00000E+00-6.67602E-01 6.00000E+00
 -1       352 0.00000E+00 6.46101E-01 2.01470E+00
 -1       353 0.00000E+00 7.27696E-01 2.03238E+00
 -1       354 1.25590E-01 7.50837E-01 2.00000E+00
 -1       355 1.37377E-01 7.80379E-01 2.05561E+00
 -1       356 1.10148E-01 8.60679E-01 2.10736E+00
 -1       357 0.00000E+00 8.45591E-01 2.21830E+00
 -1       358 2.56201E-01 8.74508E-01 2.00000E+00
 -1       359 8.94083E-02 5.27503E-01 3.85922E+00
 -1       360 1.37616E-01 3.93530E-01 4.12281E+00
 -1       361 0.00000E+00 5.61342E-01 3.72021E+00
 -1       362 0.00000E+00 4.46155E-01 4.17400E+00
 -1       363 0.00000E+00 2.91471E-01 4.04652E+00
 -1       364 1.11367E-01 3.95115E-01 3.89783E+00
 -1       365 0.00000E+00 3.82859E-01 3.79865E+00
 -1       366 2.54120E-01 4.91933E-01 4.00000E+00
 -1       367 0.00000E+00-5.32371E-01 5.64089E+00
 -1       368 2.43790E-01-9.85877E-02 5.82592E+00
 -1       369 0.00000E+00-2.70544E-02 5.63928E+00
 -1       370 0.00000E+00-2.68648E-01 5.61505E+00
 -1       371 2.99233E-01-2.52173E-01 5.70513E+00
 -1       372 5.00000E-01-1.67603E-01 6.00000E+00
 -1       373 8.67956E-01 7.68308E-01 2.03679E+00
 -1       374 8.62024E-01 8.49951E-01 2.18685E+00
 -1       375 1.00000E+00 6.72550E-01 2.02863E+00
 -1       376 1.00000E+00 8.45002E-01 2.22251E+00
 -1       377 8.30143E-01 7.11291E-01 2.10564E+00
 -1       378 7.56201E-01 8.74508E-01 2.00000E+00
 -1       379 8.78494E-01 5.26760E-01 3.86221E+00
 -1       380 1.00000E+00 4.10238E-01 3.79002E+00
 -1       381 1.00000E+00 4.50094E-01 4.15936E+00
 -1       382 8.40783E-01 4.48451E-01 4.16547E+00
 -1       383 1.00000E+00 5.61127E-01 3.72111E+00
 -1       384 8.68398E-01 3.61642E-01 3.93544E+00
 -1       385 1.00000E+00 2.79976E-01 3.97958E+00
 -1       386 7.54120E-01 4.91933E-01 4.00000E+00
 -1       387 7.43790E-01-9.85877E-02 5.82592E+00
 -1       388 1.00000E+00-2.42922E-02 5.63194E+00
 -1       389 1.00000E+00-2.36576E-01 5.68916E+00
 -1       390 1.00000E+00-5.25915E-01 5.62239E+00
 -1       391 7.99233E-01-2.52173E-01 5.70513E+00
 -1       392 3.35966E-01-9.93679E-02 3.67187E+00
 -1       393 6.29205E-01-2.64453E-01 3.69178E+00
 -1       394 7.74970E-01-1.61259E-01 3.73036E+00
 -1       395 5.99322E-01-8.81988E-02 3.50939E+00
 -1       396 4.09993E-01 5.22367E-02 3.56880E+00
 -1       397 4.12586E-01 8.86320E-02 4.01325E+00
 -1       398 4.51854E-01-2.40579E-01 3.58523E+00
 -1       399 2.74970E-01-1.27002E-01 3.76340E+00
 -1       400 7.74970E-01-4.35868E-02 3.57125E+00
 -1       401 2.74970E-01-1.34274E-02 3.93697E+00
 -1       402 3.86336E-01 9.02169E-02 3.78827E+00
 -1       403 6.43367E-01 5.67444E-02 3.82589E+00
 -1       404 6.41636E-01-2.12087E-01 4.08511E+00
 -1       405 4.49996E-01-8.70783E-02 4.02861E+00
 -1       406 7.74970E-01-2.49216E-02 3.87003E+00
 -1       407 5.31339E-01-3.12965E-01 3.89044E+00
 -1       408 0.00000E+00-7.61236E-01 4.87678E+00
 -1       409 2.46506E-01-7.14880E-01 4.72980E+00
 -1       410 0.00000E+00-4.46957E-01 4.47165E+00
 -1       411 3.37214E-01-6.14247E-01 4.39176E+00
 -1       412 0.00000E+00-5.02992E-01 4.84917E+00
 -1       413 2.75539E-01-5.68579E-01 4.72567E+00
 -1       414 2.56369E-01-5.70316E-01 4.23464E+00
 -1       415 6.10604E-01-4.58325E-01 3.80164E+00
 -1       416 2.56369E-01-3.82846E-01 4.23753E+00
 -1       417 4.33254E-01-4.32770E-01 3.69547E+00
 -1       418 2.56369E-01-3.22104E-01 3.87296E+00
 -1       419 5.93583E-01-5.49488E-01 4.15780E+00
 -1       420 6.23035E-01-4.07189E-01 4.19466E+00
 -1       421 4.31395E-01-2.82180E-01 4.13817E+00
 -1       422 3.81790E-01 7.50837E-01 2.00000E+00
 -1       423 6.24157E-01 7.68308E-01 2.03679E+00
 -1       424 3.93578E-01 7.80379E-01 2.05561E+00
 -1       425 3.66349E-01 8.60679E-01 2.10736E+00
 -1       426 6.18224E-01 8.49951E-01 2.18685E+00
 -1       427 5.53635E-01 7.50511E-01 2.15607E+00
 -1       428 5.07752E-01 6.26814E-01 2.00000E+00
 -1       429 4.34131E-01 8.45065E-01 2.22206E+00
 -1       430 1.24746E-01-1.91066E-01 2.84928E+00
 -1       431 0.00000E+00-1.03878E-01 2.80756E+00
 -1       432 1.24953E-01-2.42758E-01 2.77704E+00
 -1       433 0.00000E+00-3.07275E-01 3.12040E+00
 -1       434 1.76885E-01-3.07871E-01 3.12339E+00
 -1       435 2.51881E-01-2.64003E-01 2.89477E+00
 -1       436 0.00000E+00-2.17450E-01 2.62964E+00
 -1       437 0.00000E+00-9.38211E-02 3.02631E+00
 -1       438 8.79936E-01 3.29738E-01 3.11436E+00
 -1       439 1.00000E+00 1.63602E-01 2.72012E+00
 -1       440 8.95437E-01 4.54313E-01 3.05676E+00
 -1       441 1.00000E+00 3.15583E-01 3.05742E+00
 -1       442 8.24352E-01 8.61514E-02 3.07848E+00
 -1       443 7.48075E-01 1.08586E-01 2.77929E+00
 -1       444 8.66148E-01 8.40555E-02 2.88390E+00
 -1       445 8.81669E-01 4.10283E-01 2.77492E+00
 -1       446 1.00000E+00 3.46267E-01 2.76816E+00
 -1       447 1.00000E+00 1.30763E-01 3.14034E+00
 -1       448 7.73272E-01 3.32248E-01 2.90161E+00
 -1       449 1.00000E+00 4.79688E-01 2.92700E+00
 -1       450 1.00000E+00-1.67437E-02 2.90779E+00
 -1       451 8.88846E-02 3.95504E-01 2.37585E+00
 -1       452 1.29274E-01 3.40554E-01 2.29934E+00
 -1       453 7.78024E-02 1.39060E-01 2.41492E+00
 -1       454 0.00000E+00 1.38970E-01 2.58081E+00
 -1       455 0.00000E+00 2.04478E-01 2.30515E+00
 -1       456 1.51862E-01 1.82114E-01 2.30149E+00
 -1       457 0.00000E+00 2.37445E-02 2.40261E+00
 -1       458 0.00000E+00 3.46059E-01 2.50367E+00
 -1       459 0.00000E+00 3.80620E-01 2.31272E+00
 -1       460 2.77008E-01 3.25020E-01 2.38863E+00
 -1       461 6.32614E-01 5.26760E-01 3.86221E+00
 -1       462 3.43529E-01 5.27503E-01 3.85922E+00
 -1       463 3.91736E-01 3.93530E-01 4.12281E+00
 -1       464 5.94903E-01 4.48451E-01 4.16547E+00
 -1       465 2.54120E-01 4.46155E-01 4.17400E+00
 -1       466 3.65487E-01 3.95115E-01 3.89783E+00
 -1       467 6.22518E-01 3.61642E-01 3.93544E+00
 -1       468 8.57485E-01-2.86874E-01 3.01620E+00
 -1       469 8.51289E-01-2.43683E-01 2.78228E+00
 -1       470 1.00000E+00-8.39786E-02 2.70885E+00
 -1       471 8.24352E-01-1.61430E-01 3.06720E+00
 -1       472 8.66148E-01-1.63525E-01 2.87262E+00
 -1       473 1.00000E+00-3.14059E-01 3.15426E+00
 -1       474 1.00000E+00-2.22192E-01 2.65791E+00
 -1       475 1.00000E+00-1.16818E-01 3.12906E+00
 -1       476 8.95437E-01 7.03699E-01 3.06481E+00
 -1       477 1.00000E+00 5.64434E-01 3.06536E+00
 -1       478 9.19189E-01 7.56792E-01 2.77959E+00
 -1       479 8.81669E-01 6.59134E-01 2.78286E+00
 -1       480 1.00000E+00 7.72346E-01 2.69008E+00
 -1       481 8.12423E-01 7.44403E-01 2.84879E+00
 -1       482 1.00000E+00 6.79021E-01 3.18841E+00
 -1       483 1.00000E+00 5.95118E-01 2.77609E+00
 -1       484 7.73272E-01 5.81099E-01 2.90955E+00
 -1       485 7.28811E-01-2.11332E-03 4.84420E+00
 -1       486 1.00000E+00-8.57837E-02 5.09751E+00
 -1       487 1.00000E+00-2.93694E-01 5.15638E+00
 -1       488 1.00000E+00-2.11719E-01 4.67764E+00
 -1       489 1.00000E+00-5.83033E-01 5.08961E+00
 -1       490 7.75539E-01-3.91354E-01 4.95876E+00
 -1       491 8.66666E-01-2.94075E-01 4.66189E+00
 -1       492 7.99233E-01-3.09291E-01 5.17235E+00
 -1       493 1.00000E+00-4.85839E-01 4.79135E+00
 -1       494 1.00000E+00 8.62021E-04 4.83463E+00
 -1       495 1.00000E+00 3.46503E-01 4.52697E+00
 -1       496 8.40783E-01 3.44709E-01 4.53304E+00
 -1       497 7.28811E-01 2.80591E-01 4.74439E+00
 -1       498 1.00000E+00 1.99194E-01 4.99845E+00
 -1       499 1.00000E+00 7.09819E-02 4.57783E+00
 -1       500 1.00000E+00-6.83174E-02 3.81950E+00
 -1       501 1.00000E+00 1.98281E-01 3.76961E+00
 -1       502 1.00000E+00 2.37274E-01 4.13871E+00
 -1       503 8.40783E-01 2.35565E-01 4.14481E+00
 -1       504 1.00000E+00 4.93546E-02 3.66039E+00
 -1       505 1.00000E+00-3.67896E-02 4.19000E+00
 -1       506 8.68398E-01 1.49686E-01 3.91503E+00
 -1       507 8.66666E-01-1.19146E-01 4.17425E+00
 -1       508 0.00000E+00 1.16623E-02 4.60915E+00
 -1       509 1.37616E-01 2.88038E-01 4.49443E+00
 -1       510 0.00000E+00 1.95354E-01 5.01009E+00
 -1       511 2.28811E-01 2.79282E-01 4.74859E+00
 -1       512 0.00000E+00 3.40950E-01 4.54573E+00
 -1       513 0.00000E+00-4.43722E-02 4.98666E+00
 -1       514 0.00000E+00 1.85979E-01 4.41814E+00
 -1       515 2.75539E-01-1.09960E-01 4.86316E+00
 -1       516 1.75026E-01 1.12328E-01 4.50979E+00
 -1       517 7.46506E-01-7.42953E-01 4.81941E+00
 -1       518 8.37214E-01-6.40287E-01 4.48197E+00
 -1       519 1.00000E+00-4.15719E-01 4.53455E+00
 -1       520 1.00000E+00-7.84096E-01 4.94748E+00
 -1       521 7.75539E-01-5.95354E-01 4.81567E+00
 -1       522 8.66666E-01-4.98076E-01 4.51879E+00
 -1       523 1.01332E-01 7.13292E-01 3.01534E+00
 -1       524 1.09335E-01 7.46471E-01 2.83737E+00
 -1       525 0.00000E+00 5.69214E-01 2.92582E+00
 -1       526 1.27665E-01 5.87122E-01 2.97527E+00
 -1       527 2.03323E-01 6.79706E-01 2.79929E+00
 -1       528 0.00000E+00 6.81236E-01 3.17752E+00
 -1       529 0.00000E+00 5.79619E-01 3.06170E+00
 -1       530 0.00000E+00 7.74771E-01 2.67585E+00
 -1       531 0.00000E+00 5.97827E-01 2.75973E+00
 -1       532 6.09962E-02 9.64566E-02 3.58009E+00
 -1       533 8.94083E-02 4.17812E-01 3.65772E+00
 -1       534 1.35023E-01 2.48061E-01 3.47701E+00
 -1       535 0.00000E+00 4.49813E-01 3.51828E+00
 -1       536 0.00000E+00 6.88222E-02 3.67161E+00
 -1       537 0.00000E+00 3.50376E-01 3.40289E+00
 -1       538 0.00000E+00 1.82397E-01 3.84518E+00
 -1       539 0.00000E+00 1.71552E-01 3.39681E+00
 -1       540 1.11367E-01 2.86041E-01 3.69648E+00
 -1       541 1.00000E+00 3.77313E-01 2.15619E+00
 -1       542 7.84209E-01 3.54052E-01 2.24096E+00
 -1       543 1.00000E+00 3.16185E-01 2.36884E+00
 -1       544 1.00000E+00 5.03298E-01 2.13688E+00
 -1       545 1.00000E+00 6.74150E-01 2.33053E+00
 -1       546 1.00000E+00 3.96704E-01 2.20269E+00
 -1       547 1.00000E+00 4.98850E-01 2.41687E+00
 -1       548 8.30143E-01 5.42038E-01 2.21388E+00
 -1       549 7.77008E-01 4.78654E-01 2.29548E+00
 -1       550 6.02325E-01 3.01352E-01 2.30579E+00
 -1       551 3.65893E-01 4.91788E-01 2.36169E+00
 -1       552 4.06282E-01 4.36838E-01 2.28518E+00
 -1       553 3.54810E-01 2.35344E-01 2.40075E+00
 -1       554 7.77008E-01 2.58836E-01 2.44783E+00
 -1       555 5.74443E-01 5.23910E-01 2.34330E+00
 -1       556 5.25083E-01 2.03820E-01 2.50700E+00
 -1       557 5.28559E-01 4.00212E-01 2.18724E+00
 -1       558 4.28870E-01 2.78398E-01 2.28733E+00
 -1       559 6.58677E-01 5.05517E-01 2.50262E+00
 -1       560 4.80331E-01 5.24223E-01 2.52907E+00
 -1       561 7.77008E-01 4.41501E-01 2.49586E+00
 -1       562 4.54939E-01 6.16870E-01 2.40907E+00
 -1       563 2.77008E-01 4.42344E-01 2.48951E+00
 -1       564 6.07151E-01 4.84689E-01 2.29287E+00
 -1       565 5.50280E-01 4.27481E-01 2.62931E+00
 -1       566 4.91104E-01 5.69417E-01 2.97070E+00
 -1       567 6.53208E-01 4.31149E-01 3.09690E+00
 -1       568 3.98019E-01 1.54244E-01 2.86321E+00
 -1       569 2.73272E-01 2.41431E-01 2.82149E+00
 -1       570 6.68710E-01 5.55723E-01 3.03931E+00
 -1       571 2.73272E-01 4.19907E-01 2.91044E+00
 -1       572 7.73272E-01 4.16994E-01 3.03996E+00
 -1       573 5.97625E-01 1.87562E-01 3.06102E+00
 -1       574 4.00937E-01 4.37815E-01 2.95990E+00
 -1       575 4.08295E-01 3.27997E-01 3.12043E+00
 -1       576 5.21347E-01 2.09996E-01 2.76184E+00
 -1       577 6.39420E-01 1.85466E-01 2.86644E+00
 -1       578 6.54941E-01 5.11694E-01 2.75747E+00
 -1       579 4.76595E-01 5.30400E-01 2.78391E+00
 -1       580 5.85696E-01 5.96725E-01 2.82336E+00
 -1       581 2.73272E-01 4.48521E-01 2.74435E+00
 -1       582 1.75026E-01-1.56959E-01 4.37570E+00
 -1       583 3.12642E-01 1.19417E-01 4.26098E+00
 -1       584 5.15809E-01 1.73408E-01 4.30339E+00
 -1       585 1.75026E-01-9.62175E-02 4.01113E+00
 -1       586 4.03837E-01 1.10659E-01 4.51514E+00
 -1       587 5.12240E-01-3.24447E-01 4.29574E+00
 -1       588 1.75026E-01 1.71014E-01 4.31190E+00
 -1       589 6.75026E-01-9.89463E-02 4.34859E+00
 -1       590 1.75026E-01 1.73573E-02 4.18469E+00
 -1       591 5.43423E-01 8.75291E-02 4.07361E+00
 -1       592 4.50564E-01-2.78581E-01 4.62971E+00
 -1       593 5.41692E-01-1.81303E-01 4.33283E+00
 -1       594 2.99233E-01-6.16941E-01 5.34602E+00
 -1       595 5.45739E-01-5.67374E-01 5.20011E+00
 -1       596 5.43023E-01-1.84123E-01 5.53067E+00
 -1       597 2.99233E-01-1.15823E-01 5.34283E+00
 -1       598 5.28044E-01-2.95657E-02 5.08211E+00
 -1       599 7.99233E-01-1.13236E-01 5.33542E+00
 -1       600 7.99233E-01-3.21146E-01 5.39429E+00
 -1       601 2.99233E-01-3.53219E-01 5.32018E+00
 -1       602 7.99233E-01-6.10485E-01 5.32753E+00
 -1       603 5.74772E-01-4.18806E-01 5.19667E+00
 -1       604 3.66666E-01-2.81968E-01 4.43219E+00
 -1       605 5.95477E-01-1.43498E-02 4.57164E+00
 -1       606 7.03880E-01-4.49456E-01 4.35224E+00
 -1       607 8.66666E-01-2.23955E-01 4.40509E+00
 -1       608 7.35064E-01-3.74800E-02 4.13011E+00
 -1       609 6.42205E-01-4.03590E-01 4.68621E+00
 -1       610 5.22045E-01-6.49436E-01 4.98652E+00
 -1       611 2.75539E-01-3.79246E-01 4.72907E+00
 -1       612 2.75539E-01-1.97886E-01 5.12924E+00
 -1       613 5.04350E-01-1.11628E-01 4.86852E+00
 -1       614 7.75539E-01-1.95298E-01 5.12184E+00
 -1       615 7.75539E-01-4.03209E-01 5.18070E+00
 -1       616 6.12753E-01-5.46735E-01 4.64911E+00
 -1       617 2.75539E-01-4.35281E-01 5.10659E+00
 -1       618 7.75539E-01-6.92548E-01 5.11394E+00
 -1       619 7.48334E-01 3.29995E-01 3.59027E+00
 -1       620 8.68398E-01 1.33486E-02 3.77536E+00
 -1       621 7.46891E-01 3.95878E-01 3.79751E+00
 -1       622 8.68398E-01 2.79947E-01 3.72547E+00
 -1       623 6.92750E-01 8.64087E-02 3.55439E+00
 -1       624 5.03420E-01 2.26844E-01 3.61380E+00
 -1       625 5.06013E-01 2.63239E-01 4.05825E+00
 -1       626 8.68398E-01 3.18940E-01 4.09457E+00
 -1       627 7.09181E-01 3.17231E-01 4.10067E+00
 -1       628 5.45357E-01 4.28456E-01 3.65571E+00
 -1       629 8.68398E-01 1.31021E-01 3.61625E+00
 -1       630 8.68398E-01 4.48764E-02 4.14586E+00
 -1       631 4.79764E-01 2.64824E-01 3.83327E+00
 -1       632 6.55460E-01 3.64736E-01 2.22419E+00
 -1       633 6.98099E-01 6.05091E-01 2.14243E+00
 -1       634 6.92167E-01 6.85604E-01 2.29233E+00
 -1       635 8.30143E-01 5.09333E-01 2.13427E+00
 -1       636 6.27578E-01 5.87294E-01 2.26170E+00
 -1       637 5.81694E-01 4.63597E-01 2.10564E+00
 -1       638 8.30143E-01 6.80185E-01 2.32792E+00
 -1       639 8.30143E-01 5.04885E-01 2.41426E+00
 -1       640 1.72363E-01 1.08712E-01 3.67926E+00
 -1       641 4.89860E-01 4.29351E-01 3.75990E+00
 -1       642 2.00775E-01 4.30067E-01 3.75690E+00
 -1       643 2.46389E-01 2.60317E-01 3.57619E+00
 -1       644 2.48982E-01 2.96712E-01 4.02064E+00
 -1       645 1.11367E-01 8.10777E-02 3.77079E+00
 -1       646 2.88326E-01 4.61928E-01 3.61809E+00
 -1       647 1.11367E-01 1.94653E-01 3.94435E+00
 -1       648 0.00000E+00 4.75099E-01 2.12602E+00
 -1       649 0.00000E+00 5.56694E-01 2.14370E+00
 -1       650 1.25590E-01 5.79835E-01 2.11132E+00
 -1       651 8.88846E-02 5.47388E-01 2.28577E+00
 -1       652 1.29274E-01 4.92438E-01 2.20927E+00
 -1       653 1.37377E-01 6.09377E-01 2.16693E+00
 -1       654 1.10148E-01 6.89304E-01 2.21863E+00
 -1       655 0.00000E+00 3.56362E-01 2.21507E+00
 -1       656 0.00000E+00 6.73049E-01 2.32940E+00
 -1       657 0.00000E+00 4.97943E-01 2.41360E+00
 -1       658 6.09962E-02-5.77731E-03 3.37959E+00
 -1       659 1.24746E-01-2.79263E-02 3.01929E+00
 -1       660 0.00000E+00 5.92612E-02 2.97757E+00
 -1       661 0.00000E+00 2.37737E-01 3.06652E+00
 -1       662 3.24352E-01 5.39182E-03 3.21711E+00
 -1       663 1.27665E-01 2.55645E-01 3.11598E+00
 -1       664 1.35023E-01 1.45827E-01 3.27652E+00
 -1       665 0.00000E+00-1.46344E-01 3.28997E+00
 -1       666 1.76885E-01-1.46989E-01 3.29294E+00
 -1       667 0.00000E+00-3.34117E-02 3.47112E+00
 -1       668 0.00000E+00 2.48142E-01 3.20240E+00
 -1       669 0.00000E+00-8.33082E-02 4.28405E+00
 -1       670 1.37616E-01 1.93068E-01 4.16933E+00
 -1       671 0.00000E+00-2.25666E-02 3.91948E+00
 -1       672 0.00000E+00 2.44665E-01 4.22025E+00
 -1       673 5.00000E-01-8.90672E-01 5.26329E+00
 -1       674 7.46506E-01-8.40584E-01 5.11755E+00
 -1       675 1.00000E+00-5.94888E-01 5.31155E+00
 -1       676 8.88846E-02 5.12827E-01 2.47673E+00
 -1       677 7.78024E-02 2.56383E-01 2.51579E+00
 -1       678 0.00000E+00 2.56294E-01 2.68169E+00
 -1       679 1.09335E-01 6.11834E-01 2.68215E+00
 -1       680 0.00000E+00 4.34769E-01 2.77064E+00
 -1       681 2.48075E-01 2.24859E-01 2.62204E+00
 -1       682 2.03323E-01 5.45262E-01 2.64411E+00
 -1       683 0.00000E+00 6.38488E-01 2.52036E+00
 -1       684 1.00000E+00 1.32465E-01 4.36955E+00
 -1       685 8.40783E-01 1.30755E-01 4.37564E+00
 -1       686 7.28811E-01 6.80066E-02 4.58740E+00
 -1       687 8.37214E-01-3.67100E-01 4.36799E+00
 -1       688 0.00000E+00-6.33416E-01 5.25594E+00
 -1       689 2.46506E-01-5.83849E-01 5.11002E+00
 -1       690 0.00000E+00-3.13659E-01 4.85257E+00
 -1       691 2.43790E-01-2.00598E-01 5.44059E+00
 -1       692 0.00000E+00-1.32298E-01 5.25275E+00
 -1       693 7.78024E-02-6.59316E-02 2.41473E+00
 -1       694 0.00000E+00-6.60214E-02 2.58063E+00
 -1       695 1.24953E-01-2.04401E-01 2.55018E+00
 -1       696 0.00000E+00-5.13588E-04 2.30496E+00
 -1       697 1.80819E-01-1.75691E-01 2.36554E+00
 -1       698 2.66815E-01 6.87353E-01 2.39628E+00
 -1       699 3.15308E-01 7.49343E-01 2.27744E+00
 -1       700 2.88079E-01 8.29693E-01 2.32921E+00
 -1       701 5.39954E-01 8.17825E-01 2.40853E+00
 -1       702 2.87266E-01 7.87163E-01 2.60184E+00
 -1       703 4.75366E-01 7.19475E-01 2.37790E+00
 -1       704 3.81254E-01 7.19788E-01 2.56367E+00
 -1       705 4.90354E-01 7.86931E-01 2.60325E+00
 -1       706 1.77931E-01 8.13015E-01 2.43992E+00
 -1       707 0.00000E+00 6.97239E-01 2.25046E+00
 -1       708 8.88846E-02 6.87932E-01 2.39253E+00
 -1       709 1.10148E-01 8.30245E-01 2.32545E+00
 -1       710 1.09335E-01 7.87780E-01 2.59810E+00
 -1       711 8.79936E-01 2.29664E-01 3.33563E+00
 -1       712 8.57485E-01-1.39823E-01 3.24866E+00
 -1       713 8.54235E-01-1.90176E-01 3.48214E+00
 -1       714 1.00000E+00-8.69825E-02 3.52072E+00
 -1       715 1.00000E+00 2.15510E-01 3.27869E+00
 -1       716 1.00000E+00 1.79616E-01 3.47083E+00