    1C
    1UUSER                                                              
    1UDATE              01.october.2021                                 
    1UTIME              09:59:16                                        
    1UHOST                                                              
    1UPGM               CalculiX                                        
    1UVERSION           Version DEVELOPMENT                             
    1UCOMPILETIME       Fri Oct  1 09:39:21 CEST 2021                    
    1UDIR                                                               
    1UDBN                                                               
    1UMAT    1EL                                                        
    2C                          2031                                     1
 -1       165 4.67120E-01-5.01083E-01 6.76687E+00
 -1       166 5.10750E-01 7.29238E-01 2.93120E+00
 -1       167 4.62861E-01 9.76419E-01 8.68635E-01
 -1       168 1.00000E+00 7.26450E-01 2.94609E+00
 -1       169 1.00000E+00 3.73062E-01 1.83131E+00
 -1       170 5.22020E-01 5.20366E-01 0.00000E+00
 -1       171 0.00000E+00-7.63378E-01 4.88345E+00
 -1       172 4.57306E-01 2.65952E-01 4.79118E+00
 -1       173 5.25703E-01 0.00000E+00 0.00000E+00
 -1       174 1.00000E+00-4.56728E-01 6.67124E+00
 -1       175 0.00000E+00 3.74616E-01 1.05646E+00
 -1       176 0.00000E+00 5.36802E-01 0.00000E+00
 -1       177 1.00000E+00-2.60892E-01 2.87785E+00
 -1       178 0.00000E+00 7.31963E-01 2.91657E+00
 -1       179 0.00000E+00-2.57224E-01 2.85775E+00
 -1       180 0.00000E+00 2.27660E-01 4.91126E+00
 -1       181 1.00000E+00-2.36159E-02 8.69276E-01
 -1       182 5.12738E-01-5.08067E-01 4.00000E+00
 -1       183 1.00000E+00-7.34743E-01 4.79339E+00
 -1       184 1.00000E+00 2.83563E-01 4.73482E+00
 -1       185 0.00000E+00 9.03139E-02 3.81422E+00
 -1       186 5.12412E-01 8.74508E-01 2.00000E+00
 -1       187 1.00000E+00 7.11027E-02 3.95192E+00
 -1       188 0.00000E+00-2.75334E-02 9.38375E-01
 -1       189 0.00000E+00 9.73329E-01 9.23603E-01
 -1       190 0.00000E+00 2.49504E-01 1.94219E+00
 -1       191 5.15362E-01 1.00000E+00 0.00000E+00
 -1       192 1.00000E+00 9.77891E-01 8.41165E-01
 -1       193 5.08263E-01 4.91933E-01 4.00000E+00
 -1       194 0.00000E+00-4.61758E-01 6.68217E+00
 -1       195 1.00000E+00 5.29469E-01 0.00000E+00
 -1       196 5.00258E-01 7.26890E-01 4.67164E-01
 -1       197 7.37133E-01 4.43264E-01 9.48402E-01
 -1       198 7.15649E-01 5.99650E-01 1.86564E+00
 -1       199 2.91842E-01 4.06134E-01 2.37186E+00
 -1       200 7.45869E-01-6.60516E-02 4.28522E+00
 -1       201 2.82365E-01 6.57557E-01 9.75254E-01
 -1       202 4.41608E-01 3.29934E-01 1.88940E+00
 -1       203 4.91954E-01-3.23235E-01 5.25828E+00
 -1       204 7.75367E-01 2.88621E-01 3.89367E+00
 -1       205 4.71479E-01 3.93502E-01 4.02097E-01
 -1       206 2.78002E-01 2.99110E-01 3.87581E+00
 -1       207 4.31786E-01 3.64368E-01 3.05702E+00
 -1       208 2.84713E-01 4.91377E-02 4.12657E+00
 -1       209 3.12239E-01-2.82655E-01 4.88317E+00
 -1       210 0.00000E+00 4.45333E-01 2.43865E+00
 -1       211 1.00000E+00 4.70149E-01 7.21319E-01
 -1       212 5.18701E-01 7.72946E-01 0.00000E+00
 -1       213 4.79690E-01 4.00424E-01 4.34000E+00
 -1       214 2.19615E-01 9.94362E-01 4.26235E-01
 -1       215 2.82336E-01 8.12871E-01 2.44085E+00
 -1       216 5.91591E-01-3.47296E-01 3.31499E+00
 -1       217 1.00000E+00-4.73553E-01 5.29017E+00
 -1       218 1.00000E+00 5.58095E-01 1.29325E+00
 -1       219 2.65602E-01 1.00000E+00 0.00000E+00
 -1       220 1.00000E+00 3.12933E-01 3.49294E+00
 -1       221 3.20357E-01 5.91263E-02 5.40503E+00
 -1       222 7.21717E-01 6.23603E-01 3.44939E+00
 -1       223 7.62030E-01 4.31094E-01 0.00000E+00
 -1       224 5.30144E-01-1.99230E-02 7.98663E-01
 -1       225 1.00000E+00-1.82716E-01 2.41208E+00
 -1       226 0.00000E+00 3.15260E-01 4.61355E-01
 -1       227 0.00000E+00 5.28542E-01 1.44838E+00
 -1       228 0.00000E+00-6.96133E-03 4.73305E-01
 -1       229 7.53381E-01 9.94162E-01 4.33679E-01
 -1       230 0.00000E+00 7.76624E-01 0.00000E+00
 -1       231 6.79478E-01 9.34535E-01 1.44535E+00
 -1       232 1.00000E+00-3.04157E-03 3.13859E-01
 -1       233 2.59571E-01 0.00000E+00 0.00000E+00
 -1       234 0.00000E+00 2.24877E-01 2.89681E+00
 -1       235 1.00000E+00 4.06394E-01 4.31873E+00
 -1       236 0.00000E+00 2.78653E-01 0.00000E+00
 -1       237 1.00000E+00-6.42289E-02 1.43166E+00
 -1       238 0.00000E+00 3.88107E-01 4.38350E+00
 -1       239 1.00000E+00 7.71454E-01 0.00000E+00
 -1       240 0.00000E+00 7.09538E-01 9.28668E-01
 -1       241 0.00000E+00-1.80635E-01 2.39839E+00
 -1       242 6.30502E-01-5.94030E-01 4.32025E+00
 -1       243 6.51195E-01 8.12114E-01 2.44575E+00
 -1       244 0.00000E+00 3.22184E-02 3.30826E+00
 -1       245 2.65089E-01 5.88826E-01 0.00000E+00
 -1       246 2.93430E-01 6.25933E-01 3.43883E+00
 -1       247 1.00000E+00 2.72756E-01 0.00000E+00
 -1       248 7.80615E-01 9.71127E-01 9.60859E-01
 -1       249 6.40496E-01-9.06527E-01 5.30851E+00
 -1       250 1.00000E+00-9.01238E-01 5.29347E+00
 -1       251 0.00000E+00-3.14345E-01 5.37761E+00
 -1       252 1.00000E+00 8.11246E-01 2.45135E+00
 -1       253 1.00000E+00-1.73574E-01 4.64923E+00
 -1       254 3.30337E-01-2.07399E-01 2.56866E+00
 -1       255 0.00000E+00 6.26979E-01 3.43408E+00
 -1       256 0.00000E+00-3.63465E-01 3.39035E+00
 -1       257 1.00000E+00 1.10272E-01 5.26059E+00
 -1       258 1.00000E+00 6.18975E-01 3.47028E+00
 -1       259 1.00000E+00 9.95038E-01 4.00048E-01
 -1       260 1.00000E+00 6.24175E-01 1.91578E+00
 -1       261 1.00000E+00-3.97540E-02 3.38326E+00
 -1       262 0.00000E+00-6.53121E-02 4.32721E+00
 -1       263 1.97678E-01 9.73073E-01 9.28013E-01
 -1       264 0.00000E+00 9.93937E-01 4.41885E-01
 -1       265 1.00000E+00-3.65388E-01 3.39919E+00
 -1       266 7.57656E-01 1.00000E+00 0.00000E+00
 -1       267 0.00000E+00 8.13403E-01 2.43740E+00
 -1       268 0.00000E+00-6.64216E-02 1.45585E+00
 -1       269 0.00000E+00 9.35857E-01 1.43070E+00
 -1       270 1.00000E+00 9.40913E-01 1.37327E+00
 -1       271 5.18239E-01 2.47219E-01 0.00000E+00
 -1       272 0.00000E+00 4.88826E-02 5.43346E+00
 -1       273 1.00000E+00 2.57029E-01 3.00197E+00
 -1       274 7.71785E-01 0.00000E+00 0.00000E+00
 -1       275 5.06172E-01-1.25492E-01 2.00000E+00
 -1       276 8.07678E-01 7.20284E-01 1.67570E+00
 -1       277 8.09803E-01 7.74009E-01 1.07427E+00
 -1       278 6.75965E-01 8.31134E-02 1.61161E+00
 -1       279 2.22599E-01 7.02216E-01 2.53248E-01
 -1       280 7.54738E-01 3.85109E-01 6.47422E-01
 -1       281 4.23223E-01 6.53550E-01 1.62453E+00
 -1       282 3.87817E-01 4.20013E-01 1.48337E+00
 -1       283 2.58698E-01-1.40713E-01 3.11969E+00
 -1       284 2.79749E-01 4.55519E-01 6.39159E-01
 -1       285 5.05271E-01 6.68169E-01 1.21230E+00
 -1       286 8.24564E-01 2.52081E-01 1.21949E+00
 -1       287 7.95400E-01 5.64679E-01 2.11549E+00
 -1       288 3.89367E-01-3.21941E-01 4.42867E+00
 -1       289 8.93910E-01 4.08574E-01 3.21276E+00
 -1       290 6.27863E-01 6.96848E-01 9.46671E-01
 -1       291 1.67563E-01 4.44981E-01 2.51368E-01
 -1       292 2.47425E-01 2.80554E-01 4.47079E-01
 -1       293 2.08857E-01 1.36525E-01 1.95473E+00
 -1       294 7.76196E-01 3.08305E-01 1.85409E+00
 -1       295 3.95384E-01 8.47579E-01 2.13035E-01
 -1       296 4.93092E-01 7.92043E-01 7.29297E-01
 -1       297 8.63792E-01 2.24398E-01 9.11585E-01
 -1       298 5.16266E-01 6.39709E-01 1.73541E-01
 -1       299 7.30614E-01 2.08150E-01 3.46927E-01
 -1       300 7.84397E-01-9.35124E-02 3.17208E+00
 -1       301 3.71342E-01 2.12636E-01 2.00008E-01
 -1       302 7.86888E-01 6.97855E-01 2.44025E-01
 -1       303 7.24268E-01 3.95448E-01 2.41905E+00
 -1       304 1.75259E-01 7.88223E-01 7.06645E-01
 -1       305 7.89205E-01 5.34352E-01 1.10716E+00
 -1       306 8.00016E-01 6.77342E-01 7.31806E-01
 -1       307 4.90352E-01 3.70148E-01 1.03050E+00
 -1       308 4.85862E-01 1.52921E-01 6.53303E-01
 -1       309 5.90837E-01 5.95353E-01 2.18715E+00
 -1       310 7.20766E-01 3.11130E-02 2.64560E+00
 -1       311 3.66371E-01 7.71861E-02 2.62974E+00
 -1       312 6.14622E-01 3.88725E-01 1.80360E-01
 -1       313 1.62043E-01 7.36832E-01 1.24916E+00
 -1       314 2.61598E-01 5.92838E-01 2.02909E+00
 -1       315 2.84535E-01 1.25227E-01 1.61867E+00
 -1       316 1.90363E-01 3.66637E-01 3.47353E+00
 -1       317 2.56556E-01-1.51618E-01 2.19822E+00
 -1       318 0.00000E+00 2.16079E-01 1.41596E+00
 -1       319 8.00004E-01-9.76406E-04 1.79118E-01
 -1       320 2.58904E-01 9.98502E-01 2.21133E-01
 -1       321 2.61169E-01 7.83597E-01 0.00000E+00
 -1       322 2.81713E-01 9.58955E-01 1.14505E+00
 -1       323 1.00000E+00-1.17626E-02 6.14358E-01
 -1       324 0.00000E+00 4.79779E-01 6.93588E-01
 -1       325 1.00000E+00 2.11548E-01 6.03754E-01
 -1       326 1.00000E+00 5.89641E-01 2.16353E+00
 -1       327 0.00000E+00 5.63119E-01 1.97120E+00
 -1       328 6.25594E-01 9.08028E-01 1.71261E+00
 -1       329 0.00000E+00 4.27507E-01 1.69347E+00
 -1       330 3.86749E-01-9.01861E-02 1.69592E+00
 -1       331 4.67130E-01 9.92442E-01 4.93028E-01
 -1       332 8.78495E-01 9.58257E-01 1.15473E+00
 -1       333 1.00000E+00 1.94956E-01 2.39790E-01
 -1       334 0.00000E+00 7.97417E-01 1.18843E+00
 -1       335 7.93469E-01 7.72779E-01 2.68755E+00
 -1       336 2.61614E-01 2.69047E-01 0.00000E+00
 -1       337 1.00000E+00-9.14369E-02 1.70762E+00
 -1       338 0.00000E+00 5.29281E-01 2.28798E-01
 -1       339 2.53846E-01-4.32909E-01 3.69606E+00
 -1       340 0.00000E+00 9.98626E-01 2.11941E-01
 -1       341 7.36655E-01-2.07930E-01 2.57192E+00
 -1       342 1.95392E-01 9.85835E-01 6.73884E-01
 -1       343 0.00000E+00 1.79602E-01 2.27123E-01
 -1       344 1.00000E+00-2.04238E-01 3.67354E+00
 -1       345 1.73179E-01-1.92005E-03 2.49978E-01
 -1       346 0.00000E+00 7.76455E-02 1.70598E+00
 -1       347 1.00000E+00 9.88015E-01 6.20112E-01
 -1       348 7.87127E-01-2.01745E-02 8.03669E-01
 -1       349 7.60253E-01-4.29751E-01 3.68273E+00
 -1       350 7.49265E-01-1.58881E-01 2.25008E+00
 -1       351 8.56589E-01 9.98760E-01 2.01478E-01
 -1       352 1.00000E+00 1.30946E-01 1.64284E+00
 -1       353 2.92129E-01-1.10986E-02 5.96850E-01
 -1       354 0.00000E+00 4.04748E-01 3.14600E+00
 -1       355 7.37772E-01 9.85174E-01 6.89360E-01
 -1       356 4.69717E-01-2.71911E-01 2.93735E+00
 -1       357 1.00000E+00 7.71937E-01 1.63659E+00
 -1       358 0.00000E+00-1.62140E-03 2.29957E-01
 -1       359 1.00000E+00 7.62030E-01 1.08128E+00
 -1       360 0.00000E+00 1.53215E-01 7.05799E-01
 -1       361 0.00000E+00 9.85057E-01 6.92056E-01
 -1       362 1.00000E+00-4.04752E-02 1.13711E+00
 -1       363 0.00000E+00 3.94103E-02 2.63367E+00
 -1       364 0.00000E+00 1.24639E-01 2.41886E+00
 -1       365 1.00000E+00 2.00098E-01 8.45337E-01
 -1       366 6.09017E-01 9.98564E-01 2.16564E-01
 -1       367 7.31283E-01 2.22785E-01 0.00000E+00
 -1       368 1.00000E+00 6.69335E-02 2.61956E+00
 -1       369 3.37710E-01-3.74825E-02 1.09437E+00
 -1       370 1.00000E+00 7.43009E-01 7.55996E-01
 -1       371 1.00000E+00 9.62561E-01 1.09373E+00
 -1       372 1.00000E+00 1.92198E-01 2.19930E+00
 -1       373 0.00000E+00 9.08967E-01 1.70385E+00
 -1       374 1.00000E+00 8.48143E-01 2.48527E-01
 -1       375 0.00000E+00 9.56860E-01 1.17384E+00
 -1       376 1.00000E+00 9.11511E-01 1.67991E+00
 -1       377 1.00000E+00 4.31044E-01 1.60677E+00
 -1       378 1.00000E+00 4.94750E-01 9.56790E-01
 -1       379 7.23340E-01-7.14632E-03 4.79513E-01
 -1       380 7.92470E-01 8.45465E-01 2.21920E+00
 -1       381 6.12744E-01 9.60914E-01 1.11747E+00
 -1       382 1.00000E+00 9.98783E-01 1.99579E-01
 -1       383 7.61005E-01 7.65603E-01 0.00000E+00
 -1       384 1.00000E+00 4.80684E-01 3.22143E+00
 -1       385 1.00000E+00 4.43963E-01 2.55288E+00
 -1       386 2.74766E-01 2.95862E-01 1.20430E+00
 -1       387 7.71263E-01 4.29314E-01 2.81946E+00
 -1       388 7.51199E-01 3.48570E-01 2.08159E+00
 -1       389 5.90635E-01 2.78823E-01 7.56645E-01
 -1       390 2.69819E-01 7.35814E-01 1.49618E+00
 -1       391 3.29221E-01 1.27217E-01 8.28334E-01
 -1       392 5.01629E-01 5.81768E-01 7.23560E-01
 -1       393 6.51502E-01 4.11957E-01 1.63341E+00
 -1       394 8.35488E-01 5.37341E-01 2.37354E+00
 -1       395 6.21720E-01 1.47245E-01 2.07861E-01
 -1       396 4.56078E-01-5.17447E-01 5.74512E+00
 -1       397 2.37952E-01 5.41124E-01 4.22189E-01
 -1       398 8.48107E-01 4.16904E-01 2.03836E-01
 -1       399 8.53379E-01 6.36759E-01 4.70751E-01
 -1       400 7.11212E-01 1.20856E-01 1.09343E+00
 -1       401 4.18290E-01 1.62388E-01 4.44301E-01
 -1       402 3.81834E-01 7.25372E-02 1.35929E+00
 -1       403 3.81153E-01 4.67862E-01 2.07858E-01
 -1       404 6.63414E-01 7.04664E-01 1.44640E+00
 -1       405 2.39184E-01 7.42279E-01 1.79448E+00
 -1       406 1.14674E-01 6.75198E-01 4.68707E-01
 -1       407 6.09225E-01 3.43099E-01 1.31564E+00
 -1       408 4.18584E-01 3.15609E-02 2.29182E+00
 -1       409 6.79161E-01 4.04975E-01 4.10888E-01
 -1       410 7.66703E-01 7.46105E-02 1.95436E+00
 -1       411 2.89260E-01 7.85064E-01 5.48113E-01
 -1       412 3.31558E-01 5.39082E-01 1.29688E+00
 -1       413 7.45531E-01 5.83098E-01 3.12248E+00
 -1       414 1.00000E+00 8.63884E-01 5.74130E-01
 -1       415 4.60416E-01 9.45787E-01 1.31555E+00
 -1       416 7.34829E-01-1.04795E-01 1.82790E+00
 -1       417 1.00000E+00 6.43061E-01 1.44767E-01
 -1       418 6.94304E-01-4.03789E-02 1.13576E+00
 -1       419 2.62803E-01 9.01860E-01 1.76900E+00
 -1       420 6.96109E-01-7.41180E-02 1.53772E+00
 -1       421 4.70107E-01-1.80105E-03 2.42201E-01
 -1       422 1.00000E+00 3.94014E-01 1.96515E-01
 -1       423 0.00000E+00 9.98539E-02 1.20075E+00
 -1       424 0.00000E+00 7.50839E-01 5.75154E-01
 -1       425 0.00000E+00 5.46040E-01 4.74017E-01
 -1       426 1.00000E+00 3.79344E-02 1.39670E+00
 -1       427 1.00000E+00 1.33169E-01 1.88788E+00
 -1       428 1.00000E+00 6.44804E-01 4.95721E-01
 -1       429 3.71983E-01-6.06230E-02 1.39098E+00
 -1       430 1.00000E+00 2.08175E-01 1.08971E+00
 -1       431 2.93622E-01-2.27552E-02 8.53342E-01
 -1       432 0.00000E+00 7.71416E-01 3.49122E-01
 -1       433 4.94788E-01-1.78420E-01 2.38374E+00
 -1       434 8.08886E-01 2.48290E-01 1.48202E+00
 -1       435 9.33525E-01 4.26302E-01 5.28909E-01
 -1       436 6.70360E-01 1.27427E-01 6.44962E-01
 -1       437 8.81771E-01 8.57718E-01 3.56346E-01
 -1       438 3.81491E-01 5.09974E-01 4.56247E-01
 -1       439 6.26532E-01 5.42055E-01 2.63721E+00
 -1       440 6.97764E-01 1.09878E-01 1.34873E+00
 -1       441 8.61030E-01 6.00042E-01 8.77914E-01
 -1       442 9.07878E-01 2.83336E-01 2.49623E+00
 -1       443 2.57742E-01 5.49228E-01 3.06641E+00
 -1       444 9.17619E-01 2.99278E-01 4.04383E-01
 -1       445 7.20382E-01 9.64579E-02 2.33467E+00
 -1       446 4.87787E-01 1.38897E-01 1.17252E+00
 -1       447 8.03218E-01 7.96528E-01 5.71344E-01
 -1       448 6.36504E-01 5.57051E-01 5.49540E-01
 -1       449 9.09163E-01 5.38493E-01 3.37043E-01
 -1       450 1.00000E+00 4.07257E-01 4.96490E-01
 -1       451 1.00000E+00 2.77146E-01 1.37291E+00
 -1       452 1.77505E-01 4.18107E-01 8.62450E-01
 -1       453 1.00000E+00 9.74780E-02 1.19895E-01
 -1       454 9.00002E-01-2.35834E-04 8.95601E-02
 -1       455 8.85893E-01 0.00000E+00 0.00000E+00
 -1       456 1.00000E+00 1.36378E-01 0.00000E+00
 -1       457 1.00000E+00-7.45965E-04 1.56937E-01
 -1       458 0.00000E+00-3.94746E-04 1.14981E-01
 -1       459 8.65896E-02-4.68491E-04 1.24993E-01
 -1       460 0.00000E+00 8.98012E-02 1.13562E-01
 -1       461 1.30807E-01 1.34523E-01 0.00000E+00
 -1       462 0.00000E+00 1.39327E-01 0.00000E+00
 -1       463 1.29785E-01 0.00000E+00 0.00000E+00
 -1       464 1.00000E+00 9.99705E-01 9.97913E-02
 -1       465 1.00000E+00 9.24071E-01 1.24263E-01
 -1       466 9.28295E-01 9.99699E-01 1.00741E-01
 -1       467 8.78828E-01 1.00000E+00 0.00000E+00
 -1       468 1.00000E+00 8.85727E-01 0.00000E+00
 -1       469 0.00000E+00 9.99666E-01 1.05973E-01
 -1       470 1.30584E-01 8.91798E-01 0.00000E+00
 -1       471 1.29452E-01 9.99636E-01 1.10569E-01
 -1       472 0.00000E+00 8.88312E-01 0.00000E+00
 -1       473 1.32801E-01 1.00000E+00 0.00000E+00
 -1       474 1.00000E+00-1.30016E+00 7.33562E+00
 -1       475 7.33560E-01-1.32234E+00 7.38344E+00
 -1       476 5.00000E-01-2.14359E+00 8.00000E+00
 -1       477 1.00000E+00-1.62083E+00 7.01702E+00
 -1       478 5.00000E-01-1.62083E+00 7.01702E+00
 -1       479 1.00000E+00-1.64359E+00 8.00000E+00
 -1       480 1.00000E+00-7.85155E-01 7.34338E+00
 -1       481 7.33560E-01-8.09458E-01 7.39016E+00
 -1       482 5.00000E-01-1.64359E+00 8.00000E+00
 -1       483 5.00000E-01-1.14359E+00 8.00000E+00
 -1       484 0.00000E+00-1.30267E+00 7.34108E+00
 -1       485 2.33560E-01-1.32234E+00 7.38344E+00
 -1       486 0.00000E+00-1.64359E+00 8.00000E+00
 -1       487 0.00000E+00-1.62083E+00 7.01702E+00
 -1       488 0.00000E+00-7.87922E-01 7.34873E+00
 -1       489 2.33560E-01-8.09458E-01 7.39016E+00
 -1       490 1.00000E+00 3.83851E-03 1.94394E+00
 -1       491 8.67415E-01-1.14914E-01 1.91398E+00
 -1       492 8.83352E-01-2.54408E-02 1.97718E+00
 -1       493 1.00000E+00 3.33528E-02 2.09965E+00
 -1       494 8.74633E-01-1.41680E-01 2.12511E+00
 -1       495 1.00000E+00-1.07801E-01 1.85389E+00
 -1       496 7.53086E-01-1.25492E-01 2.00000E+00
 -1       497 1.00000E+00-1.52729E-01 2.20623E+00
 -1       498 0.00000E+00-4.26527E-04 2.20943E+00
 -1       499 0.00000E+00-2.39232E-02 1.85299E+00
 -1       500 1.93374E-01-1.07121E-01 1.84805E+00
 -1       501 1.28278E-01-1.38236E-01 2.09915E+00
 -1       502 1.04429E-01 5.51674E-03 1.97736E+00
 -1       503 2.53086E-01-1.25492E-01 2.00000E+00
 -1       504 0.00000E+00-9.36547E-02 1.72817E+00
 -1       505 0.00000E+00-1.51778E-01 2.19937E+00
 -1       506 0.00000E+00 6.20062E-02 1.97109E+00
 -1       507 8.80126E-01-4.68126E-01 3.84156E+00
 -1       508 1.00000E+00-3.56153E-01 3.83677E+00
 -1       509 1.00000E+00-4.33907E-01 3.70027E+00
 -1       510 1.00000E+00-3.40820E-01 4.32462E+00
 -1       511 8.15251E-01-5.50175E-01 4.16036E+00
 -1       512 8.72934E-01-2.87059E-01 4.14261E+00
 -1       513 1.00000E+00-2.18482E-01 3.97596E+00
 -1       514 1.00000E+00-6.16092E-01 4.39822E+00
 -1       515 7.56369E-01-5.08067E-01 4.00000E+00
 -1       516 1.26923E-01-4.69770E-01 3.84821E+00
 -1       517 1.94684E-01-4.15004E-01 4.21434E+00
 -1       518 0.00000E+00-2.86690E-01 4.16361E+00
 -1       519 0.00000E+00-4.32862E-01 3.69586E+00
 -1       520 3.15251E-01-5.50175E-01 4.16036E+00
 -1       521 1.42357E-01-2.29465E-01 4.06328E+00
 -1       522 0.00000E+00-2.08877E-01 3.90711E+00
 -1       523 2.56369E-01-5.08067E-01 4.00000E+00
 -1       524 0.00000E+00-6.29147E-01 4.44363E+00
 -1       525 7.28039E-01-8.42523E-01 5.87256E+00
 -1       526 1.00000E+00-1.03043E+00 5.64824E+00
 -1       527 8.20248E-01-1.03324E+00 5.65570E+00
 -1       528 1.00000E+00-8.20576E-01 5.64508E+00
 -1       529 1.00000E+00-8.12164E-01 6.33562E+00
 -1       530 7.33560E-01-8.34342E-01 6.38344E+00
 -1       531 5.00000E-01-1.16760E+00 6.00000E+00
 -1       532 1.00000E+00-6.67602E-01 6.00000E+00
 -1       533 2.28039E-01-8.42523E-01 5.87256E+00
 -1       534 0.00000E+00-7.40973E-01 5.68880E+00
 -1       535 3.20248E-01-1.03324E+00 5.65570E+00
 -1       536 0.00000E+00-8.14679E-01 6.34108E+00
 -1       537 0.00000E+00-9.55428E-01 5.44537E+00
 -1       538 2.33560E-01-8.34342E-01 6.38344E+00
 -1       539 0.00000E+00-6.67602E-01 6.00000E+00
 -1       540 1.31401E-01 8.88598E-01 1.88455E+00
 -1       541 1.19592E-01 8.08394E-01 1.89724E+00
 -1       542 0.00000E+00 8.92418E-01 1.85201E+00
 -1       543 0.00000E+00 7.18813E-01 1.98560E+00
 -1       544 1.30799E-01 7.33673E-01 2.01454E+00
 -1       545 0.00000E+00 8.45504E-01 2.21891E+00
 -1       546 1.41168E-01 8.45263E-01 2.22064E+00
 -1       547 2.56206E-01 8.74508E-01 2.00000E+00
 -1       548 9.51816E-02 4.29285E-01 3.73676E+00
 -1       549 0.00000E+00 5.61957E-01 3.71764E+00
 -1       550 1.46715E-01 5.61392E-01 3.72000E+00
 -1       551 0.00000E+00 4.41271E-01 4.19209E+00
 -1       552 2.39845E-01 4.47163E-01 4.17026E+00
 -1       553 1.42357E-01 2.70535E-01 4.06328E+00
 -1       554 1.39001E-01 3.95521E-01 3.93790E+00
 -1       555 2.54131E-01 4.91933E-01 4.00000E+00
 -1       556 0.00000E+00 2.91123E-01 3.90711E+00
 -1       557 2.28039E-01-3.42525E-01 5.87256E+00
 -1       558 0.00000E+00-5.68033E-02 5.71771E+00
 -1       559 0.00000E+00-2.40974E-01 5.68880E+00
 -1       560 1.60178E-01-5.14165E-02 5.70359E+00
 -1       561 0.00000E+00-3.10454E-01 6.34291E+00
 -1       562 2.33560E-01-3.29016E-01 6.38576E+00
 -1       563 5.00000E-01-1.67603E-01 6.00000E+00
 -1       564 8.96235E-01 8.60376E-01 2.10965E+00
 -1       565 1.00000E+00 8.93805E-01 1.84005E+00
 -1       566 8.12797E-01 8.91909E-01 1.85638E+00
 -1       567 1.00000E+00 7.32074E-01 2.08177E+00
 -1       568 8.97700E-01 7.19594E-01 2.05775E+00
 -1       569 9.03839E-01 7.97396E-01 1.83785E+00
 -1       570 1.00000E+00 7.49341E-01 1.95789E+00
 -1       571 1.00000E+00 8.44526E-01 2.22591E+00
 -1       572 8.57824E-01 7.37079E-01 1.93282E+00
 -1       573 7.56206E-01 8.74508E-01 2.00000E+00
 -1       574 1.00000E+00 5.57644E-01 3.73566E+00
 -1       575 1.00000E+00 4.50029E-01 4.15960E+00
 -1       576 8.60858E-01 5.60135E-01 3.72526E+00
 -1       577 1.00000E+00 4.02433E-01 3.74647E+00
 -1       578 8.87683E-01 3.90277E-01 3.94683E+00
 -1       579 7.54131E-01 4.91933E-01 4.00000E+00
 -1       580 1.00000E+00 2.81518E-01 3.97596E+00
 -1       581 7.28039E-01-3.42525E-01 5.87256E+00
 -1       582 1.00000E+00-2.42922E-02 5.63194E+00
 -1       583 6.60178E-01-5.14165E-02 5.70359E+00
 -1       584 1.00000E+00-3.20578E-01 5.64508E+00
 -1       585 7.45977E-01-2.45419E-01 5.62914E+00
 -1       586 1.00000E+00-3.08072E-01 6.33738E+00
 -1       587 7.33560E-01-3.29016E-01 6.38576E+00
 -1       588 6.62744E-01-2.16539E-01 3.62760E+00
 -1       589 7.82617E-01-1.03782E-01 3.62301E+00
 -1       590 4.09541E-01-2.18118E-01 3.63427E+00
 -1       591 3.77799E-01 1.81655E-01 3.52300E+00
 -1       592 6.74816E-01-4.84194E-02 3.37228E+00
 -1       593 7.29573E-01 2.02624E-01 3.39261E+00
 -1       594 4.11967E-01-7.20196E-02 3.34608E+00
 -1       595 7.82617E-01-2.15402E-02 3.47787E+00
 -1       596 2.82617E-01-1.83396E-01 3.48141E+00
 -1       597 2.82617E-01 1.44460E-02 3.44037E+00
 -1       598 6.43476E-01 3.10138E-01 3.51093E+00
 -1       599 7.82617E-01 1.54803E-01 3.53271E+00
 -1       600 5.78413E-01-1.75311E-01 3.44373E+00
 -1       601 4.24974E-01 2.29057E-02 3.84952E+00
 -1       602 4.98511E-01 1.80521E-01 3.31474E+00
 -1       603 4.21619E-01 1.47892E-01 3.72414E+00
 -1       604 6.70301E-01 1.42647E-01 3.73307E+00
 -1       605 6.55552E-01-3.46890E-02 3.92885E+00
 -1       606 7.82617E-01 3.38882E-02 3.76219E+00
 -1       607 2.82617E-01 4.34938E-02 3.69335E+00
 -1       608 5.38987E-01-2.55697E-01 3.78624E+00
 -1       609 4.61599E-01-5.09265E-01 6.25600E+00
 -1       610 2.33560E-01-4.81357E-01 6.72455E+00
 -1       611 7.33560E-01-4.78825E-01 6.71909E+00
 -1       612 3.84246E-01 6.39233E-01 2.99881E+00
 -1       613 5.68641E-01 6.35646E-01 2.78421E+00
 -1       614 6.28140E-01 6.56168E-01 3.02684E+00
 -1       615 6.41006E-01 5.79276E-01 2.87533E+00
 -1       616 6.52109E-01 7.51483E-01 2.80946E+00
 -1       617 4.02090E-01 6.79628E-01 3.18543E+00
 -1       618 5.80972E-01 7.72566E-01 2.68880E+00
 -1       619 6.16233E-01 6.78548E-01 3.19073E+00
 -1       620 3.96543E-01 7.72983E-01 2.68635E+00
 -1       621 4.71268E-01 5.46803E-01 2.99411E+00
 -1       622 2.55375E-01 7.30602E-01 2.92389E+00
 -1       623 7.55375E-01 7.27846E-01 2.93865E+00
 -1       624 5.37803E-01 9.69151E-01 9.93084E-01
 -1       625 6.00317E-01 9.81049E-01 7.79010E-01
 -1       626 3.29127E-01 9.81425E-01 7.71274E-01
 -1       627 4.64996E-01 9.85538E-01 6.80879E-01
 -1       628 3.72287E-01 9.68286E-01 1.00688E+00
 -1       629 4.77977E-01 8.84231E-01 7.98966E-01
 -1       630 5.45362E-01 8.36633E-01 9.07653E-01
 -1       631 4.84066E-01 8.22294E-01 1.04047E+00
 -1       632 3.30270E-01 9.74773E-01 8.98326E-01
 -1       633 6.21738E-01 9.73839E-01 9.14751E-01
 -1       634 3.72613E-01 8.16988E-01 9.21944E-01
 -1       635 8.72765E-01 6.54774E-01 3.03429E+00
 -1       636 8.85631E-01 5.77882E-01 2.88278E+00
 -1       637 1.00000E+00 5.85207E-01 2.74948E+00
 -1       638 1.00000E+00 6.03567E-01 3.08376E+00
 -1       639 8.96735E-01 7.50149E-01 2.81692E+00
 -1       640 9.46955E-01 5.67512E-01 3.07942E+00
 -1       641 1.00000E+00 4.91739E-01 2.97403E+00
 -1       642 1.00000E+00 6.74889E-01 3.20863E+00
 -1       643 1.00000E+00 7.70810E-01 2.69906E+00
 -1       644 8.60858E-01 6.77033E-01 3.19815E+00
 -1       645 9.04443E-01 3.10676E-01 1.65666E+00
 -1       646 1.00000E+00 2.53115E-01 1.85959E+00
 -1       647 8.75600E-01 3.60816E-01 1.95645E+00
 -1       648 1.00000E+00 4.02053E-01 1.71904E+00
 -1       649 1.00000E+00 2.82630E-01 2.01530E+00
 -1       650 1.00000E+00 2.52004E-01 1.73707E+00
 -1       651 1.00000E+00 4.81351E-01 1.99742E+00
 -1       652 8.88098E-01 3.40684E-01 1.84270E+00
 -1       653 8.97700E-01 4.68870E-01 1.97340E+00
 -1       654 9.03839E-01 5.46673E-01 1.75350E+00
 -1       655 1.00000E+00 4.98618E-01 1.87354E+00
 -1       656 8.57824E-01 4.86356E-01 1.84847E+00
 -1       657 4.51587E-01 4.94114E-01 1.03929E-01
 -1       658 6.41513E-01 6.42985E-01 0.00000E+00
 -1       659 3.91817E-01 3.94706E-01 0.00000E+00
 -1       660 5.68321E-01 4.54545E-01 9.01800E-02
 -1       661 5.19143E-01 5.80037E-01 8.67703E-02
 -1       662 5.20130E-01 3.83793E-01 0.00000E+00
 -1       663 3.93554E-01 5.54596E-01 0.00000E+00
 -1       664 6.42025E-01 4.75730E-01 0.00000E+00
 -1       665 5.20361E-01 6.46656E-01 0.00000E+00
 -1       666 2.28039E-01-6.40413E-01 5.31429E+00
 -1       667 1.94684E-01-5.42660E-01 4.65606E+00
 -1       668 0.00000E+00-4.14345E-01 4.60533E+00
 -1       669 0.00000E+00-5.38862E-01 5.13053E+00
 -1       670 3.20248E-01-8.33471E-01 5.09648E+00
 -1       671 3.15251E-01-6.76048E-01 4.60265E+00
 -1       672 1.56119E-01-5.23017E-01 4.88331E+00
 -1       673 2.45977E-01-5.43307E-01 5.07086E+00
 -1       674 5.00000E-01-7.48994E-01 4.83844E+00
 -1       675 0.00000E+00-2.67859E-01 4.89736E+00
 -1       676 4.23337E-01-2.79946E-02 4.60993E+00
 -1       677 2.28653E-01 1.00320E-01 4.55920E+00
 -1       678 7.28653E-01 1.89924E-01 5.02649E+00
 -1       679 7.28653E-01 4.61893E-02 4.72021E+00
 -1       680 2.28653E-01 3.28422E-01 4.58776E+00
 -1       681 3.88831E-01 1.65629E-01 5.09915E+00
 -1       682 4.68498E-01 3.34895E-01 4.56610E+00
 -1       683 3.84772E-01-8.35161E-03 4.83718E+00
 -1       684 3.71009E-01 1.57545E-01 4.45888E+00
 -1       685 4.74630E-01-2.86413E-02 5.02473E+00
 -1       686 6.01587E-01 9.99503E-02 4.53821E+00
 -1       687 7.28653E-01 2.74784E-01 4.76301E+00
 -1       688 2.28653E-01 2.46926E-01 4.85126E+00
 -1       689 4.97905E-01-4.39098E-04 1.21104E-01
 -1       690 5.73711E-01 7.36224E-02 1.03931E-01
 -1       691 6.28493E-01 1.11393E-01 0.00000E+00
 -1       692 6.62854E-01-2.35834E-04 8.95601E-02
 -1       693 4.48523E-01 1.06318E-01 1.00004E-01
 -1       694 6.48744E-01 0.00000E+00 0.00000E+00
 -1       695 5.21971E-01 1.23610E-01 0.00000E+00
 -1       696 3.92637E-01 0.00000E+00 0.00000E+00
 -1       697 7.28039E-01-4.87087E-01 6.20818E+00
 -1       698 8.87526E-02 3.96361E-01 9.59455E-01
 -1       699 0.00000E+00 2.37235E-01 1.12860E+00
 -1       700 1.65779E-01 4.56849E-01 1.17667E+00
 -1       701 1.64610E-01 2.50916E-01 9.42397E-01
 -1       702 1.37383E-01 3.35239E-01 1.13038E+00
 -1       703 0.00000E+00 2.63915E-01 8.81130E-01
 -1       704 0.00000E+00 5.86016E-01 1.12244E+00
 -1       705 0.00000E+00 4.27197E-01 8.75024E-01
 -1       706 0.00000E+00 2.95348E-01 1.23621E+00
 -1       707 8.10216E-02 5.55724E-01 1.15281E+00
 -1       708 0.00000E+00 5.42077E-01 9.92564E-01
 -1       709 0.00000E+00 4.51579E-01 1.25242E+00
 -1       710 1.41183E-01 5.16086E-01 1.01586E+00
 -1       711 0.00000E+00 1.73541E-01 9.97418E-01
 -1       712 0.00000E+00 5.33042E-01 1.14399E-01
 -1       713 1.30807E-01 4.02924E-01 0.00000E+00
 -1       714 8.37815E-02 4.90892E-01 1.25684E-01
 -1       715 1.11299E-01 6.19509E-01 1.26624E-01
 -1       716 1.32544E-01 5.62814E-01 0.00000E+00
 -1       717 0.00000E+00 4.07728E-01 0.00000E+00
 -1       718 0.00000E+00 6.56713E-01 0.00000E+00
 -1       719 1.00000E+00-9.69794E-02 2.74870E+00
 -1       720 7.34858E-01-2.66373E-01 2.90760E+00
 -1       721 8.68327E-01-2.33661E-01 2.72501E+00
 -1       722 8.60383E-01-1.14890E-01 2.76172E+00
 -1       723 8.92199E-01-1.77202E-01 3.02496E+00
 -1       724 1.00000E+00-1.93188E-03 2.93991E+00
 -1       725 1.00000E+00-3.10983E-01 3.13895E+00
 -1       726 1.00000E+00-1.50323E-01 3.13055E+00
 -1       727 1.00000E+00-2.20063E-01 2.64526E+00
 -1       728 7.95795E-01-3.02576E-01 3.09672E+00
 -1       729 1.28871E-01 6.40595E-01 2.99149E+00
 -1       730 0.00000E+00 5.68355E-01 3.03129E+00
 -1       731 0.00000E+00 7.74525E-01 2.67730E+00
 -1       732 0.00000E+00 6.81594E-01 3.17576E+00
 -1       733 1.46715E-01 6.81110E-01 3.17814E+00
 -1       734 0.00000E+00 4.78420E-01 2.90669E+00
 -1       735 1.41168E-01 7.74232E-01 2.67902E+00
 -1       736 0.00000E+00 5.88648E-01 2.67761E+00
 -1       737 1.45921E-01 5.69048E-01 2.64422E+00
 -1       738 0.00000E+00-1.08907E-01 2.74571E+00
 -1       739 2.34858E-01-2.64517E-01 2.89756E+00
 -1       740 1.83185E-01-9.00189E-02 2.74374E+00
 -1       741 1.29349E-01-1.98968E-01 2.98872E+00
 -1       742 0.00000E+00-3.08093E-01 3.12450E+00
 -1       743 1.65168E-01-2.31641E-01 2.71332E+00
 -1       744 0.00000E+00-1.12503E-01 3.08301E+00
 -1       745 0.00000E+00-2.17235E-01 2.62836E+00
 -1       746 0.00000E+00-1.61733E-02 2.87728E+00
 -1       747 0.00000E+00 1.40500E-01 5.17312E+00