    1C
    1UUSER                                                              
    1UDATE              25.april.2025                                   
    1UTIME              17:44:36                                        
    1UHOST                                                              
    1UPGM               CalculiX                                        
    1UVERSION           Version DEVELOPMENT                             
    1UCOMPILETIME       Fri Apr 25 16:17:36 CEST 2025                    
    1UDIR                                                               
    1UDBN                                                               
    1UMAT    1EL                                                        
    2C                           202                                     1
 -1         1 1.00000E+00 0.00000E+00 0.00000E+00
 -1         2 0.00000E+00 0.00000E+00 0.00000E+00
 -1         3 1.00000E+00 1.00000E+00 0.00000E+00
 -1         4 5.00000E-01 0.00000E+00 0.00000E+00
 -1         5 5.00000E-01 5.00000E-01 0.00000E+00
 -1         6 1.00000E+00 5.00000E-01 0.00000E+00
 -1         7 0.00000E+00 1.00000E+00 0.00000E+00
 -1         8 0.00000E+00 5.00000E-01 0.00000E+00
 -1         9 5.00000E-01 1.00000E+00 0.00000E+00
 -1        10 1.00000E+00-2.14359E+00 8.00000E+00
 -1        11 1.00000E+00-1.14359E+00 8.00000E+00
 -1        12 0.00000E+00-2.14359E+00 8.00000E+00
 -1        13 1.00000E+00-1.64359E+00 8.00000E+00
 -1        14 5.00000E-01-1.64359E+00 8.00000E+00
 -1        15 5.00000E-01-2.14359E+00 8.00000E+00
 -1        16 0.00000E+00-1.14359E+00 8.00000E+00
 -1        17 5.00000E-01-1.14359E+00 8.00000E+00
 -1        18 0.00000E+00-1.64359E+00 8.00000E+00
 -1        19 1.00000E+00-1.25492E-01 2.00000E+00
 -1        22 0.00000E+00-1.25492E-01 2.00000E+00
 -1        25 1.00000E+00-5.08067E-01 4.00000E+00
 -1        28 0.00000E+00-5.08067E-01 4.00000E+00
 -1        31 1.00000E+00-1.16760E+00 6.00000E+00
 -1        34 0.00000E+00-1.16760E+00 6.00000E+00
 -1        40 0.00000E+00 8.74508E-01 2.00000E+00
 -1        44 0.00000E+00 4.91933E-01 4.00000E+00
 -1        48 0.00000E+00-1.67603E-01 6.00000E+00
 -1        54 1.00000E+00 8.74508E-01 2.00000E+00
 -1        55 5.00000E-01 9.68719E-01 1.00000E+00
 -1        56 1.00000E+00 9.68719E-01 1.00000E+00
 -1        58 1.00000E+00 4.91933E-01 4.00000E+00
 -1        60 1.00000E+00 7.16234E-01 3.00000E+00
 -1        62 1.00000E+00-1.67603E-01 6.00000E+00
 -1        68 1.00000E+00 4.68719E-01 1.00000E+00
 -1       149 4.99871E-01-8.16205E-03 3.99987E+00
 -1       165 0.00000E+00 6.24941E-01 3.44333E+00
 -1       166 1.00000E+00-8.14556E-01 5.03997E+00
 -1       167 0.00000E+00 3.03528E-01 4.67001E+00
 -1       168 6.34721E-01-3.48044E-01 3.31852E+00
 -1       169 5.33180E-01-5.08067E-01 4.00000E+00
 -1       170 1.00000E+00-3.71895E-01 3.42896E+00
 -1       171 0.00000E+00-7.04761E-01 4.69704E+00
 -1       172 0.00000E+00-9.99075E-03 3.89786E+00
 -1       173 0.00000E+00-3.78048E-01 3.45686E+00
 -1       174 4.57278E-01-4.31034E-01 4.75115E+00
 -1       175 5.51859E-01 6.73521E-02 2.79603E+00
 -1       176 3.31170E-01 4.11765E-02 5.45473E+00
 -1       177 5.18742E-01-9.42477E-01 5.40950E+00
 -1       178 1.00000E+00-6.25869E-01 4.43227E+00
 -1       179 1.00000E+00-6.03993E-01 5.17701E+00
 -1       180 0.00000E+00-3.86776E-01 5.39131E+00
 -1       181 1.00000E+00-2.31806E-01 2.71428E+00
 -1       182 2.76556E-01-6.23438E-01 4.42383E+00
 -1       183 0.00000E+00-8.56554E-02 4.23392E+00
 -1       184 0.00000E+00 4.35705E-02 5.44813E+00
 -1       185 1.00000E+00-3.14044E-02 1.00197E+00
 -1       186 5.00000E-01 4.37254E-01 1.00000E+00
 -1       187 0.00000E+00 4.37254E-01 1.00000E+00
 -1       188 5.00000E-01-3.14044E-02 1.00197E+00
 -1       189 0.00000E+00-3.14044E-02 1.00197E+00
 -1       190 0.00000E+00 9.68595E-01 1.00197E+00
 -1       191 1.00000E+00-1.62083E+00 7.01702E+00
 -1       192 5.00000E-01-1.62083E+00 7.01702E+00
 -1       193 1.00000E+00-1.15559E+00 7.00000E+00
 -1       194 1.00000E+00-6.20823E-01 7.01702E+00
 -1       195 5.00000E-01-6.20823E-01 7.01702E+00
 -1       196 5.00000E-01-1.15559E+00 7.00000E+00
 -1       197 0.00000E+00-1.62083E+00 7.01702E+00
 -1       198 0.00000E+00-6.20823E-01 7.01702E+00
 -1       199 0.00000E+00-1.15559E+00 7.00000E+00
 -1       200 1.00000E+00-1.74529E-01 2.35775E+00
 -1       201 7.75930E-01-2.90700E-02 2.39801E+00
 -1       202 1.00000E+00 3.74508E-01 2.00000E+00
 -1       203 5.00000E-01 3.74508E-01 2.00000E+00
 -1       204 5.00000E-01-1.25492E-01 2.00000E+00
 -1       205 5.00000E-01-1.74529E-01 2.35775E+00
 -1       206 2.75930E-01-2.90700E-02 2.39801E+00
 -1       207 0.00000E+00-2.34765E-01 2.73138E+00
 -1       208 3.17361E-01-2.22817E-01 2.66162E+00
 -1       209 0.00000E+00 2.49725E-01 2.72167E+00
 -1       210 0.00000E+00 3.74508E-01 2.00000E+00
 -1       211 1.00000E+00-5.65380E-01 4.21657E+00
 -1       212 1.00000E+00-4.37434E-01 3.71509E+00
 -1       213 7.66590E-01-5.08067E-01 4.00000E+00
 -1       214 8.17361E-01-4.24423E-01 3.66011E+00
 -1       215 1.00000E+00-8.06700E-03 4.00000E+00
 -1       216 7.49936E-01-2.58115E-01 3.99993E+00
 -1       217 0.00000E+00-2.96861E-01 4.11696E+00
 -1       218 1.38278E-01-5.64226E-01 4.21233E+00
 -1       219 0.00000E+00-4.40755E-01 3.72898E+00
 -1       220 0.00000E+00-2.59029E-01 3.94893E+00
 -1       221 0.00000E+00-6.02306E-01 4.34968E+00
 -1       222 2.66590E-01-5.08067E-01 4.00000E+00
 -1       223 2.49935E-01-2.58115E-01 3.99993E+00
 -1       224 1.00000E+00-8.85796E-01 5.58851E+00
 -1       225 7.59371E-01-1.05226E+00 5.70581E+00
 -1       226 1.00000E+00-9.83667E-01 5.52271E+00
 -1       227 5.00000E-01-1.16760E+00 6.00000E+00
 -1       228 1.00000E+00-6.67602E-01 6.00000E+00
 -1       229 0.00000E+00-7.77188E-01 5.69566E+00
 -1       230 2.59371E-01-1.05226E+00 5.70581E+00
 -1       231 0.00000E+00-9.22420E-01 5.35341E+00
 -1       232 5.00000E-01-6.67602E-01 6.00000E+00
 -1       233 0.00000E+00-6.67602E-01 6.00000E+00
 -1       234 2.75930E-01 4.70930E-01 2.39801E+00
 -1       235 0.00000E+00 7.66418E-01 2.72456E+00
 -1       236 5.00000E-01 8.74508E-01 2.00000E+00
 -1       237 0.00000E+00 2.03139E-01 4.11696E+00
 -1       238 0.00000E+00 2.40971E-01 3.94893E+00
 -1       239 0.00000E+00 4.01529E-01 4.33607E+00
 -1       240 0.00000E+00 5.60856E-01 3.72225E+00
 -1       241 5.00000E-01 4.91933E-01 4.00000E+00
 -1       242 2.49935E-01 2.41885E-01 3.99993E+00
 -1       243 0.00000E+00-5.95910E-02 5.72499E+00
 -1       244 0.00000E+00-2.77189E-01 5.69566E+00
 -1       245 2.59371E-01-5.55040E-01 5.70475E+00
 -1       246 1.65585E-01-6.08460E-02 5.72827E+00
 -1       247 5.00000E-01-1.67603E-01 6.00000E+00
 -1       248 1.00000E+00 3.21351E-01 2.35714E+00
 -1       249 7.75930E-01 4.70930E-01 2.39801E+00
 -1       250 5.00000E-01 7.66418E-01 2.72456E+00
 -1       251 1.00000E+00 1.30064E-01 3.35714E+00
 -1       252 1.00000E+00-5.60298E-02 4.58851E+00
 -1       253 1.00000E+00-6.69681E-02 4.21614E+00
 -1       254 6.65585E-01 2.84180E-01 4.73283E+00
 -1       255 7.75930E-01 2.79643E-01 3.39801E+00
 -1       256 7.28639E-01 3.04497E-02 4.37557E+00
 -1       257 1.00000E+00 6.00190E-02 3.71448E+00
 -1       258 8.17361E-01 7.19447E-02 3.65926E+00
 -1       259 5.00000E-01 4.01529E-01 4.33607E+00
 -1       260 5.00000E-01 5.60856E-01 3.72225E+00
 -1       261 1.00000E+00 1.95091E-01 5.01088E+00
 -1       262 7.49936E-01 2.41885E-01 3.99993E+00
 -1       263 1.00000E+00-3.85798E-01 5.58851E+00
 -1       264 7.59371E-01-5.55040E-01 5.70475E+00
 -1       265 6.65585E-01-6.08460E-02 5.72827E+00
 -1       266 2.49935E-01-4.69087E-02 4.11690E+00
 -1       267 3.88213E-01-3.15800E-01 4.21185E+00
 -1       268 7.49936E-01-3.17016E-01 4.21607E+00
 -1       269 4.78574E-01-2.19598E-01 4.37551E+00
 -1       270 2.49935E-01-1.93105E-01 3.72836E+00
 -1       271 2.49935E-01-9.07640E-03 3.94886E+00
 -1       272 7.49936E-01-1.90028E-01 3.71441E+00
 -1       273 5.16526E-01-2.58115E-01 3.99993E+00
 -1       274 5.67296E-01-1.78103E-01 3.65919E+00
 -1       275 2.49935E-01 1.47683E-01 4.33494E+00
 -1       276 2.49935E-01 3.08390E-01 3.72160E+00
 -1       277 2.75930E-01 3.46147E-01 3.11968E+00
 -1       278 0.00000E+00 1.23447E-01 3.45010E+00
 -1       279 0.00000E+00 3.07475E-01 3.67060E+00
 -1       280 3.17361E-01 1.38449E-01 3.38093E+00
 -1       281 6.38278E-01-7.15836E-01 4.73288E+00
 -1       282 1.00000E+00-7.09275E-01 5.10849E+00
 -1       283 1.00000E+00-7.17138E-01 4.73708E+00
 -1       284 7.59371E-01-8.77404E-01 5.22512E+00
 -1       285 7.28639E-01-6.22795E-01 4.89556E+00
 -1       286 5.00000E-01-7.58685E-01 4.86882E+00
 -1       287 0.00000E+00 1.78522E-01 5.06073E+00
 -1       288 0.00000E+00 1.08936E-01 4.45197E+00
 -1       289 0.00000E+00-4.16238E-02 5.03066E+00
 -1       290 1.65585E-01 1.77409E-01 5.06406E+00
 -1       291 2.28639E-01-6.37528E-02 4.71058E+00
 -1       292 0.00000E+00-2.00617E-01 4.68352E+00
 -1       293 8.17361E-01-2.87019E-01 3.01696E+00
 -1       294 5.93290E-01-1.40346E-01 3.05727E+00
 -1       295 3.17361E-01-3.62895E-01 3.38772E+00
 -1       296 8.17361E-01-3.59873E-01 3.37376E+00
 -1       297 5.83951E-01-4.24423E-01 3.66011E+00
 -1       298 2.66590E-01-2.96861E-01 4.11696E+00
 -1       299 4.04868E-01-5.64226E-01 4.21233E+00
 -1       300 7.66590E-01-5.65380E-01 4.21657E+00
 -1       301 4.95229E-01-4.69550E-01 4.37557E+00
 -1       302 2.66590E-01-4.40755E-01 3.72898E+00
 -1       303 1.00000E+00-2.97791E-01 3.07241E+00
 -1       304 7.75930E-01-1.52271E-01 3.11249E+00
 -1       305 0.00000E+00-3.95208E-01 4.46548E+00
 -1       306 1.38278E-01-6.63474E-01 4.56062E+00
 -1       307 0.00000E+00-5.45768E-01 5.04418E+00
 -1       308 2.59371E-01-8.19450E-01 5.05466E+00
 -1       309 2.28639E-01-5.67897E-01 4.72409E+00
 -1       310 0.00000E+00-4.78231E-02 4.06589E+00
 -1       311 0.00000E+00-1.94019E-01 3.67736E+00
 -1       312 2.75930E-01-1.55348E-01 3.12644E+00
 -1       313 2.28639E-01-1.93732E-01 5.09964E+00
 -1       314 2.28639E-01-2.58345E-01 4.49254E+00
 -1       315 3.66917E-01-5.27236E-01 4.58749E+00
 -1       316 2.28639E-01-4.08905E-01 5.07123E+00
 -1       317 7.28639E-01-5.17513E-01 4.96408E+00
 -1       318 7.28639E-01-5.28451E-01 4.59171E+00
 -1       319 4.88010E-01-6.86756E-01 5.08032E+00
 -1       320 3.94224E-01-1.94929E-01 5.10294E+00
 -1       321 7.75930E-01-8.22269E-02 2.75515E+00
 -1       322 1.65585E-01 4.23738E-02 5.45143E+00
 -1       323 1.65585E-01-1.72800E-01 5.42302E+00
 -1       324 6.65585E-01-2.81408E-01 5.31587E+00
 -1       325 4.24956E-01-4.50650E-01 5.43211E+00
 -1       326 2.59371E-01-6.64627E-01 5.40040E+00
 -1       327 7.59371E-01-7.73235E-01 5.29325E+00
 -1       328 6.38278E-01-6.24653E-01 4.42805E+00
 -1       329 1.00000E+00-6.14931E-01 4.80464E+00
 -1       330 0.00000E+00-1.71603E-01 5.41972E+00
 -1       331 1.38278E-01-3.54547E-01 4.32888E+00
 -3
    3C                            85                                     1
 -1         1    6    0    1
 -2         2        22        19        40       189       204       188       187       210       203
 -1         2    6    0    1
 -2         2         3        54         1         5        56       186         4         6        68
 -1         3    6    0    1
 -2       149       165       168       173       276       280       274       270       278       295
 -1         4    6    0    1
 -2       177        62        31       179       264       228       225       327       263       224
 -1         5    6    0    1
 -2        40         7        54         2       190        55       236       187         8       186
 -1         6    6    0    1
 -2        54         2        19        40       186       188       202       236       187       203
 -1         7    6    0    1
 -2        44        58       149       165       241       262       242       240       260       276
 -1         8    6    0    1
 -2        31       166       177       179       226       284       225       224       282       327
 -1         9    6    0    1
 -2        34        16        11        48       199        17       196       233       198       195
 -1        10    6    0    1
 -2        11        62        31        34       194       228       193       196       232       227
 -1        11    6    0    1
 -2        12        11        34        16        14       196       197        18        17       199
 -1        12    6    0    1
 -2        54        58       175       181        60       255       249       248       251       321
 -1        13    6    0    1
 -2         7         3        54         2         9        56        55         8         5       186
 -1        14    6    0    1
 -2       175        22        19       181       206       204       201       321       205       200
 -1        15    6    0    1
 -2         1         2        19        54         4       188       185        68       186       202
 -1        16    6    0    1
 -2       168       165        58       175       280       260       258       294       277       255
 -1        17    6    0    1
 -2       176       174        58       179       320       256       254       324       317       252
 -1        18    6    0    1
 -2        62        48        34        11       247       233       232       194       195       196
 -1        19    6    0    1
 -2       174       169       149       178       301       273       269       318       300       268
 -1        20    6    0    1
 -2        34        11        10        31       196        13       192       227       193       191
 -1        21    6    0    1
 -2        10        11        34        12        13       196       192        15        14       197
 -1        22    6    0    1
 -2        34        48       177       180       233       245       230       229       244       326
 -1        23    6    0    1
 -2       149        58        25       170       262       215       216       272       257       212
 -1        24    6    0    1
 -2        25       149       168       169       216       274       214       213       273       297
 -1        25    6    0    1
 -2       177       171        34       180       308       231       230       326       307       229
 -1        26    6    0    1
 -2        48       176       177       180       246       325       245       244       323       326
 -1        27    6    0    1
 -2       149        58        44       167       262       241       242       275       259       239
 -1        28    6    0    1
 -2       174       171       166       177       309       286       285       319       308       284
 -1        29    6    0    1
 -2       167       149        58       174       275       262       259       291       269       256
 -1        30    6    0    1
 -2       165       149        44       172       276       242       240       279       271       238
 -1        31    6    0    1
 -2        54        58       165       175        60       260       250       249       255       277
 -1        32    6    0    1
 -2        40        54       165       175       236       250       235       234       249       277
 -1        33    6    0    1
 -2       174       171       167       183       309       292       291       314       305       288
 -1        34    6    0    1
 -2       174       149        58       178       269       262       256       318       268       253
 -1        35    6    0    1
 -2        58       167       174       176       259       291       256       254       290       320
 -1        36    6    0    1
 -2        22        40       165       175       210       235       209       206       234       277
 -1        68    6    0    1
 -2        58       149       165       168       262       276       260       258       274       280
 -1        69    6    0    1
 -2       168       149        25       170       274       216       214       296       272       212
 -1        70    6    0    1
 -2       174       167       149       183       291       275       269       314       288       266
 -1        71    6    0    1
 -2        19        54       175       181       202       249       201       200       248       321
 -1        72    6    0    1
 -2       182       169        28       183       299       222       218       331       298       217
 -1        73    6    0    1
 -2        58       149       168       170       262       274       258       257       272       296
 -1        74    6    0    1
 -2        54        40        19       175       236       203       202       249       234       201
 -1        75    6    0    1
 -2        40        22        19       175       210       204       203       234       206       201
 -1        76    6    0    1
 -2       149       169       182       183       273       299       267       266       298       331
 -1        77    6    0    1
 -2       172       165       149       173       279       276       271       311       278       270
 -1        78    6    0    1
 -2       149       168       169       173       274       297       273       270       295       302
 -1        79    6    0    1
 -2       172       149        28       173       271       223       220       311       270       219
 -1        80    6    0    1
 -2        28       149       169       173       223       273       222       219       270       302
 -1        81    6    0    1
 -2        25       149       169       178       216       273       213       211       268       300
 -1        82    6    0    1
 -2       176        62        48       177       265       247       246       325       264       245
 -1        83    6    0    1
 -2       180       176       174       184       323       320       316       330       322       313
 -1        84    6    0    1
 -2       169       149        28       183       273       223       222       298       266       217
 -1        85    6    0    1
 -2        58       174       178       179       256       318       253       252       317       329
 -1        86    6    0    1
 -2       182       174       149       183       315       269       267       331       314       266
 -1        87    6    0    1
 -2       172       149        44       183       271       242       238       310       266       237
 -1        88    6    0    1
 -2        25        58       149       178       215       262       216       211       253       268
 -1        89    6    0    1
 -2       175       168        22       181       294       208       206       321       293       205
 -1        90    6    0    1
 -2       170       168        58       175       296       258       257       304       294       255
 -1        91    6    0    1
 -2        22       165       173       175       209       278       207       206       277       312
 -1        92    6    0    1
 -2       173       168        22       175       295       208       207       312       294       206
 -1        93    6    0    1
 -2       165       168       173       175       280       295       278       277       294       312
 -1        94    6    0    1
 -2        34        48        62       177       233       247       232       230       245       264
 -1        95    6    0    1
 -2       177       174       171       180       319       309       308       326       316       307
 -1        96    6    0    1
 -2        31        34        62       177       227       232       228       225       230       264
 -1        97    6    0    1
 -2       166       174       177       179       285       319       284       282       317       327
 -1        98    6    0    1
 -2       177       176        62       179       325       265       264       327       324       263
 -1        99    6    0    1
 -2        28       149       172       183       223       271       220       217       266       310
 -1       100    6    0    1
 -2        44       149       167       183       242       275       239       237       266       288
 -1       101    6    0    1
 -2        58        62       176       179       261       265       254       252       263       324
 -1       102    6    0    1
 -2       174       176       177       179       320       325       319       317       324       327
 -1       103    6    0    1
 -2       178       174       166       179       318       285       283       329       317       282
 -1       104    6    0    1
 -2       167       171       174       180       292       309       291       289       307       316
 -1       105    6    0    1
 -2       167       174       176       184       291       320       290       287       313       322
 -1       106    6    0    1
 -2       177       176       174       180       325       320       319       326       323       316
 -1       107    6    0    1
 -2       175       170       168       181       304       296       294       321       303       293
 -1       108    6    0    1
 -2        58       170       175       181       257       304       255       251       303       321
 -1       109    6    0    1
 -2       149       169       174       182       273       301       269       267       299       315
 -1       110    6    0    1
 -2       166       171       174       182       286       309       285       281       306       315
 -1       111    6    0    1
 -2       178       174       169       182       318       301       300       328       315       299
 -1       112    6    0    1
 -2       166       174       178       182       285       318       283       281       315       328
 -1       113    6    0    1
 -2        28       171       182       183       221       306       218       217       305       331
 -1       114    6    0    1
 -2       171       174       182       183       309       315       306       305       314       331
 -1       115    6    0    1
 -2       180       174       167       184       316       291       289       330       313       287
 -1       116    6    0    1
 -2        48       176       180       184       246       323       244       243       322       330
 -3
    1PSTEP                         3           1           1          
  100CL  101 1.000000000         202                     0    1           1
 -4  DISP        4    1
 -5  D1          1    2    1    0
 -5  D2          1    2    2    0
 -5  D3          1    2    3    0
 -5  ALL         1    2    0    0    1ALL
 -1         1 0.00000E+00 0.00000E+00 0.00000E+00
 -1         2 8.52507E-05 0.00000E+00 0.00000E+00
 -1         3 1.18336E-04 9.68684E-05 0.00000E+00
 -1         4 5.71661E-05 6.49776E-05 0.00000E+00
 -1         5 5.90541E-05 8.43154E-05 0.00000E+00
 -1         6 5.87366E-05 4.46687E-05 0.00000E+00
 -1         7 3.26941E-05 1.07563E-04 0.00000E+00
 -1         8 6.19041E-05 4.01859E-05 0.00000E+00
 -1         9 7.52996E-05 1.29704E-04 0.00000E+00
 -1        10-9.14868E-03 2.57864E-02 1.48931E-02
 -1        11-6.79984E-03 2.56786E-02 7.07403E-03
 -1        12-9.14603E-03 2.80842E-02 1.41727E-02
 -1        13-7.97672E-03 2.57335E-02 1.09073E-02
 -1        14-7.99150E-03 2.68674E-02 1.05897E-02
 -1        15-9.14778E-03 2.69255E-02 1.45511E-02
 -1        16-6.86366E-03 2.79779E-02 6.40227E-03
 -1        17-6.83189E-03 2.68326E-02 6.75006E-03
 -1        18-8.00140E-03 2.80165E-02 1.02445E-02
 -1        19-3.23653E-04 1.12058E-03 5.36015E-04
 -1        22-3.26638E-04 1.31714E-03 2.61353E-04
 -1        25-2.87084E-03 1.96354E-03 2.19805E-03
 -1        28-2.55548E-03 4.22241E-03 1.60085E-03
 -1        31-5.62596E-03 1.11767E-02 7.12456E-03
 -1        34-5.48578E-03 1.34792E-02 6.45841E-03
 -1        40-1.34196E-04 1.27689E-03-3.62952E-04
 -1        44-6.51146E-04 4.20007E-03-9.04189E-04
 -1        48-3.32907E-03 1.34237E-02 2.54563E-04
 -1        54-2.02684E-04 1.45482E-03-2.18300E-04
 -1        55-2.47571E-05 5.17305E-04-2.75434E-04
 -1        56 1.04421E-05 4.82106E-04-2.02573E-04
 -1        58-2.02684E-04 1.45482E-03-2.18300E-04
 -1        60 1.17340E-05 1.12264E-03-8.51843E-05
 -1        62-3.16853E-03 1.11229E-02 9.35974E-04
 -1        68-3.58123E-05 4.78534E-04 8.96689E-05
 -1       149-1.60785E-03 3.10168E-03 5.25547E-04
 -1       165-2.35223E-04 3.02512E-03-6.39245E-04
 -1       166-4.24172E-03 5.79621E-03 4.44105E-03
 -1       167-1.43591E-03 6.45031E-03-1.00104E-03
 -1       168-1.75361E-03 1.78068E-03 1.03166E-03
 -1       169-2.72034E-03 3.09283E-03 1.93288E-03
 -1       170-2.02441E-03 1.19488E-03 1.30642E-03
 -1       171-3.51414E-03 6.58145E-03 2.97913E-03
 -1       172-1.52113E-03 3.90697E-03 2.22294E-04
 -1       173-1.82275E-03 3.03790E-03 8.30564E-04
 -1       174-3.04104E-03 5.77170E-03 2.10021E-03
 -1       175-6.96902E-04 1.52526E-03 3.19089E-04
 -1       176-2.44823E-03 9.48318E-03-2.85551E-04
 -1       177-4.65578E-03 8.85676E-03 5.10231E-03
 -1       178-3.44856E-03 3.24513E-03 3.05380E-03
 -1       179-3.77966E-03 6.44589E-03 3.39863E-03
 -1       180-3.37155E-03 9.84228E-03 1.65368E-03
 -1       181-1.00123E-03 1.07172E-03 7.85216E-04
 -1       182-3.22103E-03 4.95064E-03 2.59433E-03
 -1       183-1.90981E-03 4.84327E-03 4.12604E-04
 -1       184-2.52389E-03 1.01567E-02-5.26897E-04
 -1       185-8.14376E-05 4.60461E-04 3.51532E-04
 -1       186-1.37804E-05 4.96026E-04 2.68581E-05
 -1       187-1.81230E-05 4.95458E-04-6.28361E-05
 -1       188-3.53653E-05 5.00252E-04 2.85814E-04
 -1       189-2.12103E-05 5.26975E-04 1.95538E-04
 -1       190-3.12507E-05 5.02811E-04-3.05212E-04
 -1       191-7.32605E-03 1.81720E-02 1.06650E-02
 -1       192-7.28299E-03 1.93456E-02 1.03449E-02
 -1       193-6.20117E-03 1.80097E-02 7.23877E-03
 -1       194-4.90412E-03 1.80923E-02 3.45961E-03
 -1       195-4.96264E-03 1.92961E-02 3.12185E-03
 -1       196-6.19338E-03 1.91961E-02 6.90505E-03
 -1       197-7.24739E-03 2.05079E-02 9.97532E-03
 -1       198-5.01261E-03 2.04293E-02 2.78127E-03
 -1       199-6.18565E-03 2.03356E-02 6.54522E-03
 -1       200-6.23510E-04 1.10172E-03 6.22395E-04
 -1       201-5.37678E-04 1.23984E-03 4.28973E-04
 -1       202-2.22898E-04 1.23870E-03 1.54434E-04
 -1       203-1.87527E-04 1.21250E-03 6.12143E-05
 -1       204-3.15824E-04 1.20877E-03 3.94345E-04
 -1       205-5.92277E-04 1.37627E-03 4.19183E-04
 -1       206-5.28821E-04 1.51596E-03 2.76381E-04
 -1       207-9.29467E-04 1.99604E-03 3.65576E-04
 -1       208-8.77686E-04 1.67182E-03 4.69542E-04
 -1       209-4.87654E-04 1.99840E-03-3.79504E-05
 -1       210-2.09789E-04 1.29312E-03-4.55449E-05
 -1       211-3.16004E-03 2.53065E-03 2.61112E-03
 -1       212-2.43998E-03 1.46914E-03 1.71337E-03
 -1       213-2.79726E-03 2.54455E-03 2.05079E-03
 -1       214-2.30820E-03 1.80402E-03 1.50282E-03
 -1       215-1.58904E-03 1.79606E-03 8.10898E-04
 -1       216-2.19927E-03 2.52415E-03 1.31926E-03
 -1       217-2.23528E-03 4.50399E-03 1.02548E-03
 -1       218-2.88980E-03 4.55081E-03 2.08673E-03
 -1       219-2.18201E-03 3.56264E-03 1.18166E-03
 -1       220-2.02863E-03 4.04673E-03 8.42156E-04
 -1       221-3.03628E-03 5.27944E-03 2.24706E-03
 -1       222-2.63706E-03 3.68289E-03 1.78739E-03
 -1       223-2.10572E-03 3.67433E-03 1.03888E-03
 -1       224-4.71230E-03 8.68231E-03 5.14733E-03
 -1       225-5.14087E-03 9.96594E-03 6.08880E-03
 -1       226-4.92054E-03 8.32357E-03 5.70680E-03
 -1       227-5.55719E-03 1.23595E-02 6.80572E-03
 -1       228-4.40023E-03 1.11378E-02 3.90878E-03
 -1       229-4.41434E-03 1.15864E-02 3.87656E-03
 -1       230-5.06022E-03 1.11179E-02 5.75379E-03
 -1       231-4.46695E-03 9.69842E-03 4.58601E-03
 -1       232-4.40060E-03 1.23286E-02 3.59724E-03
 -1       233-4.40672E-03 1.34360E-02 3.25717E-03
 -1       234-2.22982E-04 1.51337E-03-7.03867E-05
 -1       235-5.02262E-05 2.04118E-03-4.46142E-04
 -1       236-1.43194E-04 1.28946E-03-2.79775E-04
 -1       237-1.26321E-03 4.49773E-03-3.36299E-04
 -1       238-1.08447E-03 4.04232E-03-3.40172E-04
 -1       239-1.01696E-03 5.20133E-03-1.00219E-03
 -1       240-4.10681E-04 3.53381E-03-7.81473E-04
 -1       241-4.40351E-04 3.12887E-03-5.65601E-04
 -1       242-1.07381E-03 3.69210E-03-2.09267E-04
 -1       243-2.92250E-03 1.17399E-02-1.76111E-04
 -1       244-3.35743E-03 1.15569E-02 1.00988E-03
 -1       245-3.95022E-03 1.10600E-02 2.75729E-03
 -1       246-2.89064E-03 1.14090E-02-5.46570E-05
 -1       247-3.24671E-03 1.23153E-02 6.05209E-04
 -1       248-3.23301E-04 1.17841E-03 1.91663E-04
 -1       249-2.24749E-04 1.30533E-03 3.27182E-05
 -1       250-3.03443E-05 1.57373E-03-2.17036E-04
 -1       251-9.53168E-04 1.14002E-03 4.52609E-04
 -1       252-2.04412E-03 3.69844E-03 9.61034E-04
 -1       253-1.86229E-03 2.36597E-03 1.00120E-03
 -1       254-1.31918E-03 5.20198E-03-5.44570E-04
 -1       255-6.96269E-04 1.58998E-03 1.74076E-04
 -1       256-1.73715E-03 3.60199E-03 5.40157E-04
 -1       257-1.26452E-03 1.32557E-03 6.22636E-04
 -1       258-1.22032E-03 1.72323E-03 4.88557E-04
 -1       259-8.32511E-04 4.09380E-03-6.73838E-04
 -1       260-2.13023E-04 2.53852E-03-4.29661E-04
 -1       261-1.62050E-03 5.61546E-03-2.27150E-04
 -1       262-9.93812E-04 2.38170E-03 9.88401E-05
 -1       263-3.45806E-03 8.63706E-03 2.29438E-03
 -1       264-3.95125E-03 9.90884E-03 3.08611E-03
 -1       265-2.79387E-03 1.02672E-02 2.82041E-04
 -1       266-1.75332E-03 3.97793E-03 4.79338E-04
 -1       267-2.41075E-03 3.96406E-03 1.39735E-03
 -1       268-2.48342E-03 3.10882E-03 1.61626E-03
 -1       269-2.32395E-03 4.26980E-03 1.18671E-03
 -1       270-1.76352E-03 3.05979E-03 7.60270E-04
 -1       271-1.55929E-03 3.53654E-03 3.83510E-04
 -1       272-1.82693E-03 1.99357E-03 9.91742E-04
 -1       273-2.15074E-03 3.08250E-03 1.19121E-03
 -1       274-1.72344E-03 2.30107E-03 8.68023E-04
 -1       275-1.48363E-03 4.66927E-03-1.18240E-04
 -1       276-8.00409E-04 3.07059E-03-2.20933E-04