    1C
    1UUSER                                                              
    1UDATE              27.january.2026                                 
    1UTIME              18:11:16                                        
    1UHOST                                                              
    1UPGM               CalculiX                                        
    1UVERSION           Version DEVELOPMENT                             
    1UCOMPILETIME       Sun Jan 25 13:29:30 CET 2026                    
    1UDIR                                                               
    1UDBN                                                               
    1UMAT    1EL                                                        
    2C                          1111                                     1
 -1         1 5.00000E-01 0.00000E+00 0.00000E+00
 -1         2 7.50000E-01 0.00000E+00 0.00000E+00
 -1         3 5.00000E-01 2.78379E-01-7.45058E-09
 -1         4 6.25000E-01 0.00000E+00 0.00000E+00
 -1         5 6.25000E-01 1.39189E-01-3.72529E-09
 -1         6 5.00000E-01 1.39189E-01-3.72529E-09
 -1         7 0.00000E+00 2.50000E-01 0.00000E+00
 -1         8 0.00000E+00 0.00000E+00 0.00000E+00
 -1         9 2.50000E-01 0.00000E+00 0.00000E+00
 -1        10 0.00000E+00 1.25000E-01 0.00000E+00
 -1        11 1.25000E-01 0.00000E+00 0.00000E+00
 -1        12 1.25000E-01 1.25000E-01 0.00000E+00
 -1        13 1.00000E+00 2.50000E-01 0.00000E+00
 -1        14 1.00000E+00 5.00000E-01 0.00000E+00
 -1        15 1.00000E+00 3.75000E-01 0.00000E+00
 -1        16 7.50000E-01 3.89189E-01-3.72529E-09
 -1        17 7.50000E-01 2.64189E-01-3.72529E-09
 -1        18 8.75000E-01 1.25000E-01 0.00000E+00
 -1        19 1.00000E+00 0.00000E+00 0.00000E+00
 -1        20 8.75000E-01 0.00000E+00 0.00000E+00
 -1        21 1.00000E+00 1.25000E-01 0.00000E+00
 -1        22 1.00000E+00 7.50000E-01 0.00000E+00
 -1        23 7.50000E-01 1.00000E+00 0.00000E+00
 -1        24 5.00000E-01 7.20432E-01-7.45058E-09
 -1        25 8.75000E-01 8.75000E-01 0.00000E+00
 -1        26 6.25000E-01 8.60216E-01-3.72529E-09
 -1        27 7.50000E-01 7.35216E-01-3.72529E-09
 -1        28 3.75000E-01 0.00000E+00 0.00000E+00
 -1        29 3.75000E-01 1.39189E-01-3.72529E-09
 -1        30 0.00000E+00 5.00000E-01 0.00000E+00
 -1        31 0.00000E+00 3.75000E-01 0.00000E+00
 -1        32 2.50000E-01 2.64189E-01-3.72529E-09
 -1        33 2.50000E-01 3.89189E-01-3.72529E-09
 -1        34 1.00000E+00 1.00000E+00 0.00000E+00
 -1        35 1.00000E+00 8.75000E-01 0.00000E+00
 -1        36 8.75000E-01 1.00000E+00 0.00000E+00
 -1        37 0.00000E+00 7.50000E-01 0.00000E+00
 -1        38 0.00000E+00 6.25000E-01 0.00000E+00
 -1        39 2.50000E-01 6.10216E-01-3.72529E-09
 -1        40 2.50000E-01 7.35216E-01-3.72529E-09
 -1        41 5.00000E-01 1.00000E+00 0.00000E+00
 -1        42 6.25000E-01 1.00000E+00 0.00000E+00
 -1        43 5.00000E-01 8.60216E-01-3.72529E-09
 -1        44 0.00000E+00 1.00000E+00 0.00000E+00
 -1        45 2.50000E-01 1.00000E+00 0.00000E+00
 -1        46 0.00000E+00 8.75000E-01 0.00000E+00
 -1        47 1.25000E-01 8.75000E-01 0.00000E+00
 -1        48 1.25000E-01 1.00000E+00 0.00000E+00
 -1        49 5.00000E-01 4.99405E-01-7.45058E-09
 -1        50 3.75000E-01 1.00000E+00 0.00000E+00
 -1        51 3.75000E-01 8.60216E-01-3.72529E-09
 -1        52 1.00000E+00 6.25000E-01 0.00000E+00
 -1        53 7.50000E-01 6.10216E-01-3.72529E-09
 -1        54 4.98055E-01 0.00000E+00 1.00000E+00
 -1        55 7.31142E-01 0.00000E+00 1.00000E+00
 -1        56 5.00000E-01 2.78379E-01 1.00000E+00
 -1        60 0.00000E+00 2.52933E-01 1.00000E+00
 -1        61 0.00000E+00 0.00000E+00 1.00000E+00
 -1        62 2.78327E-01 0.00000E+00 1.00000E+00
 -1        66 1.00000E+00 2.51768E-01 1.00000E+00
 -1        67 1.00000E+00 5.00708E-01 1.00000E+00
 -1        72 1.00000E+00 0.00000E+00 1.00000E+00
 -1        75 1.00000E+00 7.49769E-01 1.00000E+00
 -1        76 7.27726E-01 1.00000E+00 1.00000E+00
 -1        77 4.45093E-01 7.27255E-01 1.00000E+00
 -1        83 0.00000E+00 5.01936E-01 1.00000E+00
 -1        87 1.00000E+00 1.00000E+00 1.00000E+00
 -1        90 0.00000E+00 7.50000E-01 1.00000E+00
 -1        94 5.07790E-01 1.00000E+00 1.00000E+00
 -1        97 0.00000E+00 1.00000E+00 1.00000E+00
 -1        98 2.79742E-01 1.00000E+00 1.00000E+00
 -1       107-7.45058E-09 2.78379E-01 5.00000E-01
 -1       108 0.00000E+00 0.00000E+00 4.27759E-01
 -1       109 0.00000E+00 0.00000E+00 5.58579E-01
 -1       113 0.00000E+00 0.00000E+00 7.49345E-01
 -1       120-5.07143E-09 8.09705E-01 5.26793E-01
 -1       121 0.00000E+00 1.00000E+00 4.11759E-01
 -1       132 0.00000E+00 1.00000E+00 5.59332E-01
 -1       135 0.00000E+00 1.00000E+00 7.50000E-01
 -1       142 7.78533E-01-5.92739E-09 5.24264E-01
 -1       143 1.00000E+00 0.00000E+00 3.47017E-01
 -1       144 1.00000E+00 0.00000E+00 5.62265E-01
 -1       148 1.00000E+00 0.00000E+00 7.50000E-01
 -1       155 2.79568E-01-7.45058E-09 5.00000E-01
 -1       170 1.00000E+00 7.88628E-01 5.71525E-01
 -1       171 1.00000E+00 1.00000E+00 3.18015E-01
 -1       172 1.00000E+00 1.00000E+00 5.19809E-01
 -1       176 1.00000E+00 1.00000E+00 7.58865E-01
 -1       183 1.00000E+00 2.79568E-01 5.00000E-01
 -1       198 2.58081E-01 1.00000E+00 5.19189E-01
 -1       205 7.20432E-01 1.00000E+00 5.00000E-01
 -1       227 4.23487E-01 3.35587E-01 2.47688E-01
 -1       228 3.21642E-01 7.65314E-01 4.11147E-01
 -1       229 2.75677E-01 2.20312E-01 7.37719E-01
 -1       230 5.98391E-01 8.05416E-01 7.80233E-01
 -1       231 8.15035E-01 1.64034E-01 7.07790E-01
 -1       232 1.30496E-01 1.22131E-01 5.68015E-01
 -1       233 1.72337E-01 8.13165E-01 6.67320E-01
 -1       234 8.54631E-01 8.96120E-01 3.56629E-01
 -1       235 8.47357E-01 8.97493E-01 5.58966E-01
 -1       236 8.78777E-01 8.91878E-02 9.16993E-02
 -1       510 1.00000E+00 0.00000E+00 6.42339E-01
 -1       511 1.00000E+00 1.00000E+00 6.34728E-01
 -1       512-3.21537E-10 1.18955E-01 8.46152E-01
 -1       513 7.45176E-01 6.90149E-01 1.00000E+00
 -1       514 3.98217E-01 1.00000E+00 7.65171E-01
 -1       515 0.00000E+00 1.00000E+00 6.54764E-01
 -1       516 3.65004E-01 1.28059E-01 1.00000E+00
 -1       517 7.19116E-02-1.91647E-09 5.67688E-01
 -1       518 2.55489E-01 6.12636E-01 1.00000E+00
 -1       519 1.47564E-01 8.96350E-01 1.00000E+00
 -1       520 5.04600E-01-7.06531E-09 5.25855E-01
 -1       521 1.28994E-01 0.00000E+00 1.00000E+00
 -1       522 8.77442E-01-2.69179E-10 8.53469E-01
 -1       523 1.00000E+00 8.89076E-01 1.00000E+00
 -1       524 8.68683E-01 1.00000E+00 8.50724E-01
 -1       525 7.00476E-01-3.08469E-09 7.92990E-01
 -1       526-3.67117E-09 2.97208E-01 7.53632E-01
 -1       527-3.46442E-10 8.81319E-01 8.44057E-01
 -1       528 8.81219E-01 0.00000E+00 1.00000E+00
 -1       529-3.68140E-09 7.03480E-01 7.52945E-01
 -1       530 6.38079E-01 1.25149E-01 1.00000E+00
 -1       531 1.21260E-01 1.00000E+00 1.00000E+00
 -1       532 0.00000E+00 1.20077E-01 1.00000E+00
 -1       533-7.45058E-09 4.96601E-01 5.00000E-01
 -1       534 6.78298E-01 1.00000E+00 7.70631E-01
 -1       535 4.84811E-01 4.97499E-01 1.00000E+00
 -1       536 9.06646E-01-2.12734E-09 6.92489E-01
 -1       537 1.00000E+00 2.93020E-01 7.59577E-01
 -1       538 1.22924E-01 1.00000E+00 8.72924E-01
 -1       539 1.00000E+00 1.30716E-01 6.33109E-01
 -1       540 6.27865E-01 8.70869E-01 1.00000E+00
 -1       541 4.27507E-01-3.57212E-09 7.60279E-01
 -1       542 2.25247E-01 1.00000E+00 7.76175E-01
 -1       543 1.00000E+00 0.00000E+00 8.80095E-01
 -1       544 3.35162E-01 8.68643E-01 1.00000E+00
 -1       545 1.00000E+00 1.00000E+00 8.83403E-01
 -1       546 1.00000E+00 9.01173E-01 8.54137E-01
 -1       547 0.00000E+00 0.00000E+00 6.20483E-01
 -1       548 8.77209E-01 1.00000E+00 1.00000E+00
 -1       549 1.00000E+00 5.57741E-01 7.76659E-01
 -1       550 1.00000E+00 4.75288E-01 5.43972E-01
 -1       551 0.00000E+00 8.79582E-01 1.00000E+00
 -1       552 8.71164E-01 1.00000E+00 6.53153E-01
 -1       553-2.63515E-09 1.11540E-01 6.74661E-01
 -1       554 0.00000E+00 1.00000E+00 8.78905E-01
 -1       555 1.00000E+00 1.19616E-01 8.42957E-01
 -1       556-2.13273E-09 7.96860E-02 5.58758E-01
 -1       557 2.34144E-01 2.63289E-01 1.00000E+00
 -1       558 1.00000E+00 1.19986E-01 1.00000E+00
 -1       559 7.61909E-01 4.06188E-01 1.00000E+00
 -1       560 8.40448E-01 8.79952E-01 1.00000E+00
 -1       561 2.47648E-01-3.20576E-09 7.69791E-01
 -1       562 7.70446E-01 2.42667E-01 1.00000E+00
 -1       563 1.09642E-01 1.00000E+00 6.57679E-01
 -1       564-2.51667E-09 9.02071E-01 6.69050E-01
 -1       565 1.00000E+00 9.23534E-01 6.83824E-01
 -1       566 0.00000E+00 0.00000E+00 8.79231E-01
 -1       567 5.19413E-01 1.00000E+00 5.64039E-01
 -1       568 1.08668E-01-2.46072E-09 6.83766E-01
 -1       569 1.27167E-01 1.22833E-01 1.00000E+00
 -1       570 8.46311E-01 1.14885E-01 1.00000E+00
 -1       571 8.96325E-01 1.00000E+00 5.19759E-01
 -1       572 1.19912E-01-2.60727E-10 8.51380E-01
 -1       573 1.58464E-01 8.53594E-01 8.50774E-01
 -1       574 8.42746E-01 5.68090E-01 8.39069E-01
 -1       575 7.94742E-01 9.29961E-01 6.32323E-01
 -1       576 8.95779E-01 8.21673E-01 9.16222E-01
 -1       577 1.40890E-01 2.70675E-01 8.52903E-01
 -1       578 6.48983E-01 3.12012E-01 8.17448E-01
 -1       579 1.38915E-01 1.29006E-01 6.93512E-01
 -1       580 9.07078E-01 1.31240E-01 5.93904E-01
 -1       581 8.38304E-01 1.20281E-01 8.37676E-01
 -1       582 3.46746E-01 7.53327E-01 8.12492E-01
 -1       583 8.11066E-01 6.46276E-01 6.12158E-01
 -1       584 6.77832E-01 9.02792E-01 5.35010E-01
 -1       585 1.48675E-01 2.39528E-01 7.24501E-01
 -1       586 6.45956E-01 1.40386E-01 6.23200E-01
 -1       587 4.45307E-01 1.26420E-01 8.31713E-01
 -1       588 4.27291E-01 4.92320E-01 7.42168E-01
 -1       589 4.05443E-01 8.43954E-01 6.87815E-01
 -1       590 1.94533E-01 9.00084E-02 8.80280E-01
 -1       591 8.83880E-01 2.63781E-01 8.78476E-01
 -1       592 8.66177E-01 3.52049E-01 5.94445E-01
 -1       593 6.78635E-01 1.31469E-01 8.58244E-01
 -1       594 3.73891E-01 1.10240E-01 6.18324E-01
 -1       595 9.46799E-02 8.98278E-01 5.63030E-01
 -1       596 1.51811E-01 3.53931E-01 5.96751E-01
 -1       597 1.51079E-01 6.54143E-01 8.24021E-01
 -1       598 7.41274E-01 8.35860E-01 6.08244E-01
 -1       599 5.73958E-01 6.51282E-01 8.73592E-01
 -1       600 9.42718E-02 6.61373E-01 6.22389E-01
 -1       601 7.67785E-01 6.00201E-01 4.55137E-01
 -1       602-3.64705E-09 4.99848E-01 7.55251E-01
 -1       603 1.66446E-01 8.15540E-01 1.00000E+00
 -1       604 1.00000E+00 8.00322E-01 7.88377E-01
 -1       605 5.97973E-01-5.16352E-09 6.53482E-01
 -1       606 2.07294E-01 7.40386E-01 1.00000E+00
 -1       607 9.12357E-01 9.35084E-01 7.62229E-01
 -1       608 2.40710E-01 4.07833E-01 8.59698E-01
 -1       609 2.73847E-01 2.32075E-01 5.97038E-01
 -1       610 4.91706E-01 6.69044E-01 7.74896E-01
 -1       611 4.41616E-01 3.05108E-01 7.89894E-01
 -1       612 5.66796E-01 6.92240E-01 5.71837E-01
 -1       613 2.27571E-01 5.37442E-01 5.13959E-01
 -1       614 4.93996E-01 8.32785E-01 8.60812E-01
 -1       615 7.64923E-01 8.20849E-01 8.36014E-01
 -1       616 8.99633E-01 9.02225E-01 6.41048E-01
 -1       617 4.01165E-01 2.91008E-01 6.69003E-01
 -1       618 6.50488E-01 5.80323E-01 6.89524E-01
 -1       619 1.96870E-01 4.44177E-01 7.08875E-01
 -1       620 7.06477E-01 2.69282E-01 5.47545E-01
 -1       621 2.97496E-01 6.15338E-01 6.96159E-01
 -1       622 2.97078E-01 4.13265E-01 6.59604E-01
 -1       623 5.02300E-01-3.91793E-09 2.62928E-01
 -1       624 6.39267E-01-3.90607E-09 2.62132E-01
 -1       625 3.89784E-01-3.72529E-09 2.50000E-01
 -1       626 4.61744E-01 1.67794E-01 1.23844E-01
 -1       627 7.28239E-01 1.34641E-01 2.73773E-01
 -1       628 8.14388E-01 4.45939E-02 4.58497E-02
 -1       629 8.75000E-01-6.84009E-10 1.73508E-01
 -1       630 7.64267E-01-3.49511E-09 2.62132E-01
 -1       631 5.86744E-01 1.67794E-01 1.23844E-01
 -1       632 6.33892E-01 4.39290E-01 2.27569E-01
 -1       633 4.61744E-01 3.06983E-01 1.23844E-01
 -1       634 2.11744E-01 2.92794E-01 1.23844E-01
 -1       635-3.72529E-09 2.64189E-01 2.50000E-01
 -1       636-1.25327E-09 1.25000E-01 2.13879E-01
 -1       637 2.11744E-01 1.67794E-01 1.23844E-01
 -1       638 0.00000E+00 0.00000E+00 2.13879E-01
 -1       639 3.36744E-01 1.67794E-01 1.23844E-01
 -1       640 1.25000E-01-1.25046E-09 2.13879E-01
 -1       641 2.64784E-01-3.72529E-09 2.50000E-01
 -1       642 8.53239E-01 2.59641E-01 2.73773E-01
 -1       643 8.83892E-01 4.25101E-01 2.27569E-01
 -1       644 1.00000E+00 1.25000E-01 1.73508E-01
 -1       645 9.39388E-01 1.69594E-01 4.58497E-02
 -1       646 1.00000E+00 2.64784E-01 2.50000E-01
 -1       647 7.11744E-01 2.92794E-01 1.23844E-01
 -1       648 8.83892E-01 5.50101E-01 2.27569E-01
 -1       649 1.00000E+00 4.87644E-01 2.71986E-01
 -1       650 1.00000E+00 3.89784E-01 2.50000E-01
 -1       651 1.00000E+00 6.44314E-01 2.85763E-01
 -1       652 1.00000E+00 0.00000E+00 1.73508E-01
 -1       653 9.39388E-01 4.45939E-02 4.58497E-02
 -1       654 8.83892E-01 6.75101E-01 2.27569E-01
 -1       655 1.00000E+00 8.75000E-01 1.59007E-01
 -1       656 9.27316E-01 8.23060E-01 1.78314E-01
 -1       657 1.00000E+00 7.69314E-01 2.85763E-01
 -1       658 6.60821E-01 7.57657E-01 2.05573E-01
 -1       659 7.13916E-01 9.51396E-01 2.67505E-01
 -1       660 8.75000E-01 1.00000E+00 1.59007E-01
 -1       661 8.02316E-01 9.48060E-01 1.78314E-01
 -1       662 7.35216E-01 1.00000E+00 2.50000E-01
 -1       663 5.35821E-01 8.82657E-01 2.05573E-01
 -1       664 6.33892E-01 6.60317E-01 2.27569E-01
 -1       665 4.61744E-01 5.28010E-01 1.23844E-01
 -1       666 4.10821E-01 7.42873E-01 2.05573E-01
 -1       667 1.13785E-01 5.18721E-01 2.56980E-01
 -1       668-3.72529E-09 4.98300E-01 2.50000E-01
 -1       669 1.60821E-01 6.32657E-01 2.05573E-01
 -1       670 2.11744E-01 4.17794E-01 1.23844E-01
 -1       671-3.92491E-09 6.54852E-01 2.63397E-01
 -1       672-3.72529E-09 3.89189E-01 2.50000E-01
 -1       673 1.00000E+00 1.00000E+00 1.59007E-01
 -1       674 9.27316E-01 9.48060E-01 1.78314E-01
 -1       675-1.13790E-09 8.75000E-01 2.05879E-01
 -1       676 1.60821E-01 7.57657E-01 2.05573E-01
 -1       677-3.28577E-09 7.79852E-01 2.63397E-01
 -1       678 5.88916E-01 9.51396E-01 2.67505E-01
 -1       679 5.09707E-01 1.00000E+00 2.82019E-01
 -1       680 3.79041E-01 1.00000E+00 2.59594E-01
 -1       681 6.10216E-01 1.00000E+00 2.50000E-01
 -1       682 4.10821E-01 8.82657E-01 2.05573E-01
 -1       683 1.60821E-01 8.82657E-01 2.05573E-01
 -1       684 0.00000E+00 1.00000E+00 2.05879E-01
 -1       685 1.25000E-01 1.00000E+00 2.05879E-01
 -1       686 2.85821E-01 8.82657E-01 2.05573E-01
 -1       687 2.54041E-01 1.00000E+00 2.59594E-01
 -1       688 5.88345E-01 6.57347E-02 9.29122E-01
 -1       689 4.71681E-01 6.32102E-02 9.15856E-01
 -1       690 4.62781E-01-1.78606E-09 8.80139E-01
 -1       691 5.68067E-01 6.25745E-02 1.00000E+00
 -1       692 5.99266E-01-1.54234E-09 8.96495E-01
 -1       693 4.31530E-01 6.40294E-02 1.00000E+00
 -1       694 6.14599E-01 0.00000E+00 1.00000E+00
 -1       695 3.88191E-01 0.00000E+00 1.00000E+00
 -1       696 7.04888E-01 6.57347E-02 9.29122E-01
 -1       697 7.84723E-01 6.01406E-02 9.18838E-01
 -1       698 7.88726E-01 5.74425E-02 1.00000E+00
 -1       699 6.84611E-01 6.25745E-02 1.00000E+00
 -1       700 8.06181E-01 0.00000E+00 1.00000E+00
 -1       701 7.15809E-01-1.54234E-09 8.96495E-01
 -1       702 8.04292E-01-2.67544E-10 9.26734E-01
 -1       703 4.70808E-01 2.91743E-01 8.94947E-01
 -1       704 3.70355E-01 3.43106E-01 9.29849E-01
 -1       705 5.89317E-01 2.04924E-01 9.29122E-01
 -1       706 4.72653E-01 2.02399E-01 9.15856E-01
 -1       707 5.74491E-01 2.95195E-01 9.08724E-01
 -1       708 6.35223E-01 2.60523E-01 1.00000E+00
 -1       709 6.30955E-01 3.42284E-01 1.00000E+00
 -1       710 3.67072E-01 2.70834E-01 1.00000E+00
 -1       711 4.92406E-01 3.87939E-01 1.00000E+00
 -1       712 5.69039E-01 2.01764E-01 1.00000E+00
 -1       713 4.32502E-01 2.03219E-01 1.00000E+00
 -1       714 1.20355E-01 3.30383E-01 9.29849E-01
 -1       715 7.04452E-02 2.61804E-01 9.26452E-01
 -1       716 6.35833E-02 1.87883E-01 1.00000E+00
 -1       717 1.17072E-01 2.58111E-01 1.00000E+00
 -1       718 0.00000E+00 1.86505E-01 1.00000E+00
 -1       719-1.83559E-09 2.75070E-01 8.76816E-01
 -1       720-1.81450E-10 1.85944E-01 9.23076E-01
 -1       721 0.00000E+00 3.77435E-01 1.00000E+00
 -1       722 0.00000E+00 0.00000E+00 9.39615E-01
 -1       723 0.00000E+00 6.00386E-02 1.00000E+00
 -1       724 6.44969E-02 0.00000E+00 1.00000E+00
 -1       725 2.36430E-01 4.50042E-02 9.40140E-01
 -1       726 3.61817E-01 6.32102E-02 9.15856E-01
 -1       727 1.99120E-01-3.29635E-10 9.25690E-01
 -1       728 2.02747E-01 6.14167E-02 1.00000E+00
 -1       729 2.62988E-01-1.71519E-09 8.84895E-01
 -1       730 3.52917E-01-1.78606E-09 8.80139E-01
 -1       731 2.03661E-01 0.00000E+00 1.00000E+00
 -1       732 3.21666E-01 6.40294E-02 1.00000E+00
 -1       733 9.41940E-01 2.57774E-01 9.39238E-01
 -1       734 9.23155E-01 1.83326E-01 1.00000E+00
 -1       735 8.85223E-01 2.47217E-01 1.00000E+00
 -1       736 8.80955E-01 3.28978E-01 1.00000E+00
 -1       737 1.00000E+00 1.85877E-01 1.00000E+00
 -1       738 1.00000E+00 1.85692E-01 9.21479E-01
 -1       739 1.00000E+00 2.72394E-01 8.79788E-01
 -1       740 1.00000E+00 3.76238E-01 1.00000E+00
 -1       741 9.41940E-01 3.82244E-01 9.39238E-01
 -1       742 9.21373E-01 5.34399E-01 9.19535E-01
 -1       743 8.80955E-01 4.53448E-01 1.00000E+00
 -1       744 1.00000E+00 5.29224E-01 8.88330E-01
 -1       745 1.00000E+00 3.96864E-01 8.79788E-01
 -1       746 8.72588E-01 5.95428E-01 1.00000E+00
 -1       747 1.00000E+00 6.25238E-01 1.00000E+00
 -1       748 1.00000E+00 5.99931E-02 1.00000E+00
 -1       749 1.00000E+00 0.00000E+00 9.40047E-01
 -1       750 9.40610E-01 0.00000E+00 1.00000E+00
 -1       751 1.00000E+00 7.75045E-01 8.94188E-01
 -1       752 9.47890E-01 7.85721E-01 9.58111E-01
 -1       753 9.21373E-01 6.58930E-01 9.19535E-01
 -1       754 9.20224E-01 8.14861E-01 1.00000E+00
 -1       755 1.00000E+00 6.53755E-01 8.88330E-01
 -1       756 1.00000E+00 8.25471E-01 9.27068E-01
 -1       757 1.00000E+00 8.19423E-01 1.00000E+00
 -1       758 8.72588E-01 7.19959E-01 1.00000E+00
 -1       759 7.46324E-01 9.10424E-01 9.18007E-01
 -1       760 7.84087E-01 9.39976E-01 1.00000E+00
 -1       761 8.02468E-01 1.00000E+00 1.00000E+00
 -1       762 6.77795E-01 9.35435E-01 1.00000E+00
 -1       763 7.03012E-01 1.00000E+00 8.85315E-01
 -1       764 7.98204E-01 1.00000E+00 9.25362E-01
 -1       765 6.17758E-01 1.00000E+00 1.00000E+00
 -1       766 4.69545E-01 7.80020E-01 9.30406E-01
 -1       767 3.26193E-01 7.33820E-01 1.00000E+00
 -1       768 5.09526E-01 6.89268E-01 9.36796E-01
 -1       769 3.95920E-01 7.40291E-01 9.06246E-01
 -1       770 3.90128E-01 7.97949E-01 1.00000E+00
 -1       771 5.36479E-01 7.99062E-01 1.00000E+00
 -1       772 4.64952E-01 6.12377E-01 1.00000E+00
 -1       773 3.50291E-01 6.69945E-01 1.00000E+00
 -1       774 5.95134E-01 7.08702E-01 1.00000E+00
 -1       775 1.20355E-01 4.54885E-01 9.29849E-01
 -1       776-1.82353E-09 5.00892E-01 8.77625E-01
 -1       777 7.55397E-02 5.78039E-01 9.12010E-01
 -1       778 7.04452E-02 3.86306E-01 9.26452E-01
 -1       779 1.17072E-01 3.82612E-01 1.00000E+00
 -1       780-1.84070E-09 6.02708E-01 8.76473E-01
 -1       781-1.83559E-09 3.99572E-01 8.76816E-01
 -1       782 1.27745E-01 5.57286E-01 1.00000E+00
 -1       783 0.00000E+00 6.25968E-01 1.00000E+00
 -1       784 9.38605E-01 1.00000E+00 1.00000E+00
 -1       785 1.00000E+00 1.00000E+00 9.41702E-01
 -1       786 1.00000E+00 9.44538E-01 1.00000E+00
 -1       787 1.03647E-01 7.45193E-01 1.00000E+00
 -1       788 8.32231E-02 7.82770E-01 1.00000E+00
 -1       789 7.55397E-02 7.02071E-01 9.12010E-01
 -1       790 7.92322E-02 8.01797E-01 9.25387E-01
 -1       791 0.00000E+00 8.14791E-01 1.00000E+00
 -1       792-1.84070E-09 7.26740E-01 8.76473E-01
 -1       793-1.73221E-10 8.15660E-01 9.22028E-01
 -1       794 7.37818E-02 8.23175E-01 1.00000E+00
 -1       795 1.27745E-01 6.81318E-01 1.00000E+00
 -1       796 5.00893E-01 9.16393E-01 9.30406E-01
 -1       797 4.21476E-01 9.34322E-01 1.00000E+00
 -1       798 5.67827E-01 9.35435E-01 1.00000E+00
 -1       799 5.93044E-01 1.00000E+00 8.85315E-01
 -1       800 4.53004E-01 1.00000E+00 8.82585E-01
 -1       801 3.93766E-01 1.00000E+00 1.00000E+00
 -1       802 0.00000E+00 1.00000E+00 9.39452E-01
 -1       803 0.00000E+00 9.39791E-01 1.00000E+00
 -1       804 6.06301E-02 1.00000E+00 1.00000E+00
 -1       805 2.19103E-01 9.26797E-01 9.25387E-01
 -1       806 3.07452E-01 9.34322E-01 1.00000E+00
 -1       807 2.52494E-01 1.00000E+00 8.88088E-01
 -1       808 2.01333E-01 1.00000E+00 9.36462E-01
 -1       809 2.00501E-01 1.00000E+00 1.00000E+00
 -1       810 2.13653E-01 9.48175E-01 1.00000E+00
 -1       811 3.38979E-01 1.00000E+00 8.82585E-01
 -1       812 1.13785E-01 4.07910E-01 5.06980E-01
 -1       813 7.59057E-02 3.16155E-01 5.48376E-01
 -1       814 2.11744E-01 3.06983E-01 3.73844E-01
 -1       815 6.94575E-02 2.03692E-01 5.96756E-01
 -1       816-4.79166E-09 1.79032E-01 5.29379E-01
 -1       817-5.04287E-09 1.94960E-01 5.87331E-01
 -1       818-7.45058E-09 3.87490E-01 5.00000E-01
 -1       819-5.56088E-09 2.87793E-01 6.26816E-01
 -1       820 6.52480E-02 2.00255E-01 5.34008E-01
 -1       821-3.72529E-09 1.39189E-01 4.63879E-01
 -1       822-1.06637E-09 3.98430E-02 4.93258E-01
 -1       823 3.59558E-02-9.58233E-10 4.97724E-01
 -1       824 0.00000E+00 0.00000E+00 4.93169E-01
 -1       825 1.39784E-01-3.72529E-09 4.63879E-01
 -1       826 2.11744E-01 1.67794E-01 3.37723E-01
 -1       827 6.52480E-02 6.10657E-02 4.97887E-01
 -1       828-1.06637E-09 3.98430E-02 5.58668E-01
 -1       829 0.00000E+00 0.00000E+00 5.89531E-01
 -1       830 3.59558E-02-9.58233E-10 5.63133E-01
 -1       831 6.94575E-02 6.45032E-02 7.21429E-01
 -1       832 5.99558E-02-1.34970E-10 8.00362E-01
 -1       833 5.43341E-02-1.23497E-09 7.16556E-01
 -1       834 0.00000E+00 0.00000E+00 8.14288E-01
 -1       835-1.32219E-09 5.57702E-02 7.12003E-01
 -1       836 0.00000E+00 0.00000E+00 6.84914E-01
 -1       837-1.65386E-10 5.94775E-02 7.97749E-01
 -1       838 1.13785E-01 6.73573E-01 5.20376E-01
 -1       839 4.71359E-02 7.35539E-01 5.74591E-01
 -1       840 4.73400E-02 8.53991E-01 5.44911E-01
 -1       841-3.84063E-09 8.55888E-01 5.97922E-01
 -1       842-7.25096E-09 6.53153E-01 5.13397E-01
 -1       843-4.97399E-09 7.56592E-01 6.39869E-01
 -1       844-2.53572E-09 9.04852E-01 5.43062E-01
 -1       845 8.61685E-02 8.11435E-01 5.97057E-01
 -1       846-2.53572E-09 9.04852E-01 4.69276E-01
 -1       847 1.60821E-01 7.87510E-01 4.68970E-01
 -1       848 4.73400E-02 9.49139E-01 4.87394E-01
 -1       849 0.00000E+00 1.00000E+00 4.85545E-01
 -1       850 1.60821E-01 8.82657E-01 4.11453E-01
 -1       851 1.29041E-01 1.00000E+00 4.65474E-01
 -1       852 4.73400E-02 9.49139E-01 5.61181E-01
 -1       853-1.30491E-09 9.51036E-01 6.14191E-01
 -1       854 5.48209E-02 1.00000E+00 6.08506E-01
 -1       855 0.00000E+00 1.00000E+00 6.07048E-01
 -1       856 1.29041E-01 1.00000E+00 5.39260E-01
 -1       857 7.92322E-02 9.26797E-01 8.00387E-01
 -1       858-1.25834E-09 9.51036E-01 7.09525E-01
 -1       859 5.48209E-02 1.00000E+00 7.03840E-01
 -1       860 0.00000E+00 1.00000E+00 8.14452E-01
 -1       861 6.14620E-02 1.00000E+00 8.11462E-01
 -1       862-1.73221E-10 9.40660E-01 7.97028E-01
 -1       863 0.00000E+00 1.00000E+00 7.02382E-01
 -1       864 7.42505E-01 1.34641E-01 5.35904E-01
 -1       865 6.88253E-01-6.12627E-09 5.88873E-01
 -1       866 7.12245E-01 7.01930E-02 5.73732E-01
 -1       867 8.42806E-01 6.56198E-02 5.59084E-01
 -1       868 8.42589E-01-4.21297E-09 6.08376E-01
 -1       869 7.39504E-01-4.96164E-09 6.58627E-01
 -1       870 6.41567E-01-7.07716E-09 5.25060E-01
 -1       871 8.89267E-01-2.96369E-09 5.43265E-01
 -1       872 7.96784E-01 8.20171E-02 6.16027E-01
 -1       873 8.89267E-01-2.96369E-09 4.35640E-01
 -1       874 6.01010E-01 1.67794E-01 3.85976E-01
 -1       875 8.53239E-01 1.34641E-01 4.47281E-01
 -1       876 9.53539E-01 6.56198E-02 4.70460E-01
 -1       877 1.00000E+00 0.00000E+00 4.54641E-01
 -1       878 9.39388E-01 4.45939E-02 2.19358E-01
 -1       879 1.00000E+00 1.39784E-01 4.23508E-01
 -1       880 9.53539E-01 6.56198E-02 5.78085E-01
 -1       881 1.00000E+00 6.53582E-02 5.97687E-01
 -1       882 9.53323E-01-1.24928E-09 6.27377E-01
 -1       883 1.00000E+00 0.00000E+00 6.02302E-01
 -1       884 1.00000E+00 1.39784E-01 5.31133E-01
 -1       885 9.19152E-01 6.01406E-02 7.93838E-01
 -1       886 1.00000E+00 5.98080E-02 7.96479E-01
 -1       887 1.00000E+00 0.00000E+00 8.15047E-01
 -1       888 1.00000E+00 6.53582E-02 6.91554E-01
 -1       889 9.53323E-01-1.06367E-09 7.21244E-01
 -1       890 9.38721E-01-1.34590E-10 8.01734E-01
 -1       891 1.00000E+00 0.00000E+00 6.96169E-01
 -1       892 2.76707E-01 1.16037E-01 5.48519E-01
 -1       893 3.26730E-01 5.51199E-02 5.59162E-01
 -1       894 2.09242E-01 6.45031E-02 5.96756E-01
 -1       895 1.94118E-01-4.95565E-09 5.91883E-01
 -1       896 2.63608E-01-5.32817E-09 6.34895E-01
 -1       897 3.53537E-01-5.51135E-09 6.30139E-01
 -1       898 3.92084E-01-7.25794E-09 5.12928E-01
 -1       899 1.75740E-01-4.68352E-09 5.33844E-01
 -1       900 2.05032E-01 6.10657E-02 5.34008E-01
 -1       901 3.51528E-01 1.67794E-01 3.73844E-01
 -1       902 9.49816E-01 8.45427E-01 6.06287E-01
 -1       903 1.00000E+00 7.94475E-01 6.79951E-01
 -1       904 8.83892E-01 6.94415E-01 5.13331E-01
 -1       905 9.05533E-01 7.17452E-01 5.91842E-01
 -1       906 1.00000E+00 8.56081E-01 6.27675E-01
 -1       907 1.00000E+00 6.31958E-01 5.57749E-01
 -1       908 1.00000E+00 6.73184E-01 6.74092E-01
 -1       909 1.00000E+00 8.94314E-01 5.45667E-01
 -1       910 9.23679E-01 8.43061E-01 5.65246E-01
 -1       911 1.00000E+00 8.94314E-01 4.44770E-01
 -1       912 9.27316E-01 8.42374E-01 4.64077E-01
 -1       913 9.48162E-01 1.00000E+00 4.18887E-01
 -1       914 1.00000E+00 1.00000E+00 4.18912E-01
 -1       915 8.60216E-01 1.00000E+00 4.09007E-01
 -1       916 9.27316E-01 9.48060E-01 3.37322E-01
 -1       917 9.49816E-01 9.51113E-01 5.80429E-01
 -1       918 9.48162E-01 1.00000E+00 5.19784E-01
 -1       919 1.00000E+00 9.61767E-01 6.01817E-01
 -1       920 1.00000E+00 1.00000E+00 5.77269E-01
 -1       921 9.23679E-01 9.48747E-01 5.39388E-01
 -1       922 9.27316E-01 9.48060E-01 4.38219E-01
 -1       923 9.56178E-01 9.67542E-01 7.60547E-01
 -1       924 1.00000E+00 9.61767E-01 7.21345E-01
 -1       925 9.35582E-01 1.00000E+00 7.06009E-01
 -1       926 1.00000E+00 9.50586E-01 8.06501E-01
 -1       927 1.00000E+00 1.00000E+00 8.21134E-01
 -1       928 9.34341E-01 1.00000E+00 8.04795E-01
 -1       929 1.00000E+00 1.00000E+00 6.96797E-01
 -1       930 8.53239E-01 2.74425E-01 5.23773E-01
 -1       931 8.83892E-01 4.39885E-01 4.77569E-01
 -1       932 9.33088E-01 3.15809E-01 5.47223E-01
 -1       933 9.53539E-01 2.05404E-01 5.46952E-01
 -1       934 1.00000E+00 3.77428E-01 5.21986E-01
 -1       935 1.00000E+00 2.05142E-01 5.66554E-01
 -1       936 1.00000E+00 2.86294E-01 6.29788E-01
 -1       937 1.76381E-01 9.49139E-01 5.41109E-01
 -1       938 3.31762E-01 9.21977E-01 6.03502E-01
 -1       939 3.88747E-01 1.00000E+00 5.41614E-01
 -1       940 1.83862E-01 1.00000E+00 5.88434E-01
 -1       941 2.41664E-01 1.00000E+00 6.47682E-01
 -1       942 3.28149E-01 1.00000E+00 6.42180E-01
 -1       943 2.89862E-01 8.82657E-01 4.65168E-01
 -1       944 2.15209E-01 9.06583E-01 5.93254E-01
 -1       945 6.99132E-01 9.51396E-01 5.17505E-01
 -1       946 7.57587E-01 9.64980E-01 5.66162E-01
 -1       947 8.08378E-01 1.00000E+00 5.09880E-01
 -1       948 6.19922E-01 1.00000E+00 5.32019E-01
 -1       949 7.95798E-01 1.00000E+00 5.76576E-01
 -1       950 6.99365E-01 1.00000E+00 6.35315E-01
 -1       951 7.87532E-01 9.48060E-01 4.28314E-01
 -1       952 7.83895E-01 9.48747E-01 5.29483E-01
 -1       953 3.60283E-01 3.74426E-01 4.53646E-01
 -1       954 5.64982E-01 3.02435E-01 3.97616E-01
 -1       955 4.12326E-01 3.13298E-01 4.58345E-01
 -1       956 3.25529E-01 4.36515E-01 3.80823E-01
 -1       957 4.95142E-01 5.13914E-01 4.09762E-01
 -1       958 3.48667E-01 2.83831E-01 4.22363E-01
 -1       959 5.95636E-01 4.67894E-01 3.51412E-01
 -1       960 2.87649E-01 3.44759E-01 4.22219E-01
 -1       961 3.98689E-01 2.22914E-01 4.33006E-01
 -1       962 4.25389E-01 4.13954E-01 4.94928E-01
 -1       963 2.11744E-01 4.16094E-01 3.73844E-01
 -1       964 4.64044E-01 1.67794E-01 3.86771E-01
 -1       965 6.51132E-01 2.12388E-01 1.69693E-01
 -1       966 3.72565E-01 5.50451E-01 3.29417E-01
 -1       967 2.76992E-01 2.28859E-01 4.07851E-01
 -1       968 3.09569E-01 6.90326E-01 5.53653E-01
 -1       969 2.74607E-01 6.51378E-01 4.62553E-01
 -1       970 4.44219E-01 7.28777E-01 4.91492E-01
 -1       971 5.44713E-01 6.82758E-01 4.33142E-01
 -1       972 2.07957E-01 7.13344E-01 5.16768E-01
 -1       973 2.08161E-01 8.31796E-01 4.87088E-01
 -1       974 3.63543E-01 8.04634E-01 5.49481E-01
 -1       975 4.99737E-01 8.34053E-01 4.73079E-01
 -1       976 4.20528E-01 8.82657E-01 4.87593E-01
 -1       977 1.60821E-01 6.30958E-01 4.55573E-01
 -1       978 2.46990E-01 7.89240E-01 5.39233E-01
 -1       979 5.88137E-01 8.30717E-01 3.83888E-01
 -1       980 2.86378E-01 3.16789E-01 6.98662E-01
 -1       981 2.36273E-01 3.32245E-01 7.23297E-01
 -1       982 3.38421E-01 2.55660E-01 7.03361E-01
 -1       983 3.58647E-01 2.62710E-01 7.63806E-01
 -1       984 2.74762E-01 2.26194E-01 6.67378E-01
 -1       985 2.58193E-01 3.14073E-01 7.98709E-01
 -1       986 2.54910E-01 2.41801E-01 8.68859E-01
 -1       987 2.13744E-01 2.87122E-01 6.67235E-01
 -1       988 3.24784E-01 1.65276E-01 6.78021E-01
 -1       989 2.35105E-01 1.55160E-01 8.09000E-01
 -1       990 3.60492E-01 1.73366E-01 7.84716E-01
 -1       991 2.12176E-01 2.29920E-01 7.31110E-01