
                        S T E P       1


                                INCREMENT     2


 displacements (vx,vy,vz) for set NALL and time  0.1000000E+01

         1  0.000000E+00  0.000000E+00  0.000000E+00
         2  0.000000E+00  0.000000E+00  0.000000E+00
         3 -2.794258E-05  2.794258E-05 -5.491135E-05
         4 -2.794258E-05 -2.794258E-05 -5.491135E-05
         5  0.000000E+00  0.000000E+00  0.000000E+00
         6  0.000000E+00  0.000000E+00  0.000000E+00
         7  2.794258E-05  2.794258E-05 -5.491135E-05
         8  2.794258E-05 -2.794258E-05 -5.491135E-05
         9  0.000000E+00  0.000000E+00  0.000000E+00
        10  5.431436E-06 -5.431436E-06 -2.745462E-05
        11 -2.793883E-05 -2.848882E-19 -1.030325E-04
        12  5.431436E-06  5.431436E-06 -2.745462E-05
        13  0.000000E+00  0.000000E+00  0.000000E+00
        14  0.000000E+00  0.000000E+00  0.000000E+00
        15  1.789595E-20  2.793883E-05 -1.030325E-04
        16 -3.089925E-19 -2.793883E-05 -1.030325E-04
        17  0.000000E+00  0.000000E+00  0.000000E+00
        18 -5.431436E-06 -5.431436E-06 -2.745462E-05
        19  2.793883E-05 -1.248198E-19 -1.030325E-04
        20 -5.431436E-06  5.431436E-06 -2.745462E-05
        21  5.765413E-06  5.765413E-06 -1.384086E-04
        22  5.765413E-06 -5.765413E-06 -1.384086E-04
        23  0.000000E+00  0.000000E+00 -3.970354E-04
        24  0.000000E+00  0.000000E+00 -3.970354E-04
        25 -5.765413E-06  5.765413E-06 -1.384086E-04
        26 -5.765413E-06 -5.765413E-06 -1.384086E-04
        27  0.000000E+00  0.000000E+00 -3.970354E-04
        28  0.000000E+00  0.000000E+00 -3.970354E-04
        29  5.758760E-06  3.885033E-18 -1.494509E-04
        30 -1.904927E-06  1.904927E-06 -2.677221E-04
        31  0.000000E+00  0.000000E+00 -3.928070E-04
        32 -1.904927E-06 -1.904927E-06 -2.677221E-04
        33 -3.630451E-17  5.758760E-06 -1.494509E-04
        34 -3.456723E-17 -5.758760E-06 -1.494509E-04
        35  0.000000E+00  0.000000E+00 -3.928070E-04
        36  0.000000E+00  0.000000E+00 -3.928070E-04
        37 -5.758760E-06  5.820381E-18 -1.494509E-04
        38  1.904927E-06  1.904927E-06 -2.677221E-04
        39  0.000000E+00  0.000000E+00 -3.928070E-04
        40  1.904927E-06 -1.904927E-06 -2.677221E-04
