    1C
    1UUSER                                                              
    1UDATE              19.july.2022                                    
    1UTIME              21:27:06                                        
    1UHOST                                                              
    1UPGM               CalculiX                                        
    1UVERSION           Version DEVELOPMENT                             
    1UCOMPILETIME       Tue Jul 19 21:11:38 CEST 2022                    
    1UDIR                                                               
    1UDBN                                                               
    1UMAT    1EL                                                        
    1UMAT    2SI1                                                       
    1UMAT    3SPRING                                                    
    2C                            18                                     1
 -1         1 0.00000E+00 0.00000E+00 0.00000E+00
 -1         2 1.10000E+00 0.00000E+00 0.00000E+00
 -1         3 1.00000E+00-1.00000E-01 1.00000E-01
 -1         4 1.20000E+00-1.00000E-01 1.00000E-01
 -1         5 1.20000E+00-1.00000E-01-1.00000E-01
 -1         6 1.00000E+00-1.00000E-01-1.00000E-01
 -1         7 1.00000E+00 1.00000E-01 1.00000E-01
 -1         8 1.20000E+00 1.00000E-01 1.00000E-01
 -1         9 1.20000E+00 1.00000E-01-1.00000E-01
 -1        10 1.00000E+00 1.00000E-01-1.00000E-01
 -1        11 1.00000E+00-1.00000E-01 1.00000E-01
 -1        12 2.00000E+00-1.00000E-01 1.00000E-01
 -1        13 2.00000E+00-1.00000E-01-1.00000E-01
 -1        14 1.00000E+00-1.00000E-01-1.00000E-01
 -1        15 1.00000E+00 1.00000E-01 1.00000E-01
 -1        16 2.00000E+00 1.00000E-01 1.00000E-01
 -1        17 2.00000E+00 1.00000E-01-1.00000E-01
 -1        18 1.00000E+00 1.00000E-01-1.00000E-01
 -3
    3C                             3                                     1
 -1         1   11    0    3
 -2         1         2
 -1         2    1    0    1
 -2         3         4         5         6         7         8         9        10
 -1         3    1    0    1
 -2        11        12        13        14        15        16        17        18
 -3
    1PSTEP                         1          10           1          
  100CL  101 1.00000E-06          18                     1    1           1
 -4  ENER        1    1
 -5  ENER        1    1    0    0
 -1         1 0.00000E+00
 -1         2 0.00000E+00
 -1         3-8.34580E-30
 -1         4 1.96672E-29
 -1         5-5.87186E-30
 -1         6 1.59691E-29
 -1         7-1.95164E-30
 -1         8-2.73814E-30
 -1         9 6.99358E-30
 -1        10 1.10636E-29
 -1        11 0.00000E+00
 -1        12 0.00000E+00
 -1        13 0.00000E+00
 -1        14 0.00000E+00
 -1        15 0.00000E+00
 -1        16 0.00000E+00
 -1        17 0.00000E+00
 -1        18 0.00000E+00
 -3
    1PSTEP                         2          20           1          
  100CL  102 2.00000E-06          18                     1    2           1
 -4  ENER        1    1
 -5  ENER        1    1    0    0
 -1         1 0.00000E+00
 -1         2 0.00000E+00
 -1         3-4.24276E-28
 -1         4 3.33459E-28
 -1         5-3.94862E-28
 -1         6 1.26910E-27
 -1         7 5.89512E-29
 -1         8 2.96635E-28
 -1         9 1.69077E-29
 -1        10 6.85406E-28
 -1        11 0.00000E+00
 -1        12 0.00000E+00
 -1        13 0.00000E+00
 -1        14 0.00000E+00
 -1        15 0.00000E+00
 -1        16 0.00000E+00
 -1        17 0.00000E+00
 -1        18 0.00000E+00
 -3
    1PSTEP                         3          30           1          
  100CL  103 3.00000E-06          18                     1    3           1
 -4  ENER        1    1
 -5  ENER        1    1    0    0
 -1         1 0.00000E+00
 -1         2 0.00000E+00
 -1         3 1.96561E-27
 -1         4-3.67984E-28
 -1         5 5.39136E-29
 -1         6-7.38385E-30
 -1         7 1.31687E-27
 -1         8 2.11517E-28
 -1         9 5.26718E-29
 -1        10 1.51127E-27
 -1        11 0.00000E+00
 -1        12 0.00000E+00
 -1        13 0.00000E+00
 -1        14 0.00000E+00
 -1        15 0.00000E+00
 -1        16 0.00000E+00
 -1        17 0.00000E+00
 -1        18 0.00000E+00
 -3
    1PSTEP                         4          40           1          
  100CL  104 4.00000E-06          18                     1    4           1
 -4  ENER        1    1
 -5  ENER        1    1    0    0
 -1         1 0.00000E+00
 -1         2 0.00000E+00
 -1         3-4.81308E-28
 -1         4 5.01392E-27
 -1         5-1.18843E-27
 -1         6 8.73941E-29
 -1         7 1.27007E-27
 -1         8-1.52240E-27
 -1         9 9.12945E-28
 -1        10-4.75658E-28
 -1        11 0.00000E+00
 -1        12 0.00000E+00
 -1        13 0.00000E+00
 -1        14 0.00000E+00
 -1        15 0.00000E+00
 -1        16 0.00000E+00
 -1        17 0.00000E+00
 -1        18 0.00000E+00
 -3
    1PSTEP                         5          50           1          
  100CL  105 5.00000E-06          18                     1    5           1
 -4  ENER        1    1
 -5  ENER        1    1    0    0
 -1         1 0.00000E+00
 -1         2 0.00000E+00
 -1         3 8.27431E-28
 -1         4-1.98988E-27
 -1         5 4.39518E-26
 -1         6-1.18558E-26
 -1         7-2.27519E-27
 -1         8 8.19617E-27
 -1         9-1.32836E-26
 -1        10 3.58024E-27
 -1        11 0.00000E+00
 -1        12 0.00000E+00
 -1        13 0.00000E+00
 -1        14 0.00000E+00
 -1        15 0.00000E+00
 -1        16 0.00000E+00
 -1        17 0.00000E+00
 -1        18 0.00000E+00
 -3
    1PSTEP                         6          60           1          
  100CL  106 6.00000E-06          18                     1    6           1
 -4  ENER        1    1
 -5  ENER        1    1    0    0
 -1         1 0.00000E+00
 -1         2 0.00000E+00
 -1         3-1.19517E-27
 -1         4 2.31882E-26
 -1         5 9.10445E-27
 -1         6 7.04705E-28
 -1         7 6.17389E-28
 -1         8 1.27055E-27
 -1         9 1.95711E-27
 -1        10 6.13340E-27
 -1        11 0.00000E+00
 -1        12 0.00000E+00
 -1        13 0.00000E+00
 -1        14 0.00000E+00
 -1        15 0.00000E+00
 -1        16 0.00000E+00
 -1        17 0.00000E+00
 -1        18 0.00000E+00
 -3
    1PSTEP                         7          70           1          
  100CL  107 7.00000E-06          18                     1    7           1
 -4  ENER        1    1
 -5  ENER        1    1    0    0
 -1         1 0.00000E+00
 -1         2 0.00000E+00
 -1         3-1.50286E-27
 -1         4 7.96906E-27
 -1         5 3.77308E-26
 -1         6-3.87744E-27
 -1         7 7.58176E-27
 -1         8-5.03609E-27
 -1         9-2.93073E-27
 -1        10 5.51715E-27
 -1        11 0.00000E+00
 -1        12 0.00000E+00
 -1        13 0.00000E+00
 -1        14 0.00000E+00
 -1        15 0.00000E+00
 -1        16 0.00000E+00
 -1        17 0.00000E+00
 -1        18 0.00000E+00
 -3
    1PSTEP                         8          80           1          
  100CL  108 8.00000E-06          18                     1    8           1
 -4  ENER        1    1
 -5  ENER        1    1    0    0
 -1         1 0.00000E+00
 -1         2 0.00000E+00
 -1         3-1.16786E-26
 -1         4 3.41626E-26
 -1         5-9.36828E-27
 -1         6 7.55909E-27
 -1         7 7.87466E-27
 -1         8-1.05460E-26
 -1         9 4.00513E-26
 -1        10-1.32564E-26
 -1        11 0.00000E+00
 -1        12 0.00000E+00
 -1        13 0.00000E+00
 -1        14 0.00000E+00
 -1        15 0.00000E+00
 -1        16 0.00000E+00
 -1        17 0.00000E+00
 -1        18 0.00000E+00
 -3
    1PSTEP                         9          90           1          
  100CL  109 9.00000E-06          18                     1    9           1
 -4  ENER        1    1
 -5  ENER        1    1    0    0
 -1         1 0.00000E+00
 -1         2 0.00000E+00
 -1         3 1.30978E-26
 -1         4 7.54785E-27
 -1         5 2.04802E-26
 -1         6-9.53928E-27
 -1         7 5.41926E-27
 -1         8 1.37247E-27
 -1         9-1.47818E-27
 -1        10-1.15483E-27
 -1        11 0.00000E+00
 -1        12 0.00000E+00
 -1        13 0.00000E+00
 -1        14 0.00000E+00
 -1        15 0.00000E+00
 -1        16 0.00000E+00
 -1        17 0.00000E+00
 -1        18 0.00000E+00
 -3
    1PSTEP                        10         100           1          
  100CL  110 1.00000E-05          18                     1   10           1
 -4  ENER        1    1
 -5  ENER        1    1    0    0
 -1         1 0.00000E+00
 -1         2 0.00000E+00
 -1         3 1.56316E-26
 -1         4-6.38840E-27
 -1         5 9.11118E-27
 -1         6-1.79865E-27
 -1         7 1.15228E-26
 -1         8 2.46726E-26
 -1         9-6.40752E-27
 -1        10-4.31398E-27
 -1        11 0.00000E+00
 -1        12 0.00000E+00
 -1        13 0.00000E+00
 -1        14 0.00000E+00
 -1        15 0.00000E+00
 -1        16 0.00000E+00
 -1        17 0.00000E+00
 -1        18 0.00000E+00
 -3
 9999
