
                        S T E P       1


                                INCREMENT     1


 displacements (vx,vy,vz) for set N1 and time  0.2500000E-07

        23  0.000000E+00  0.000000E+00 -4.807692E-05

                                INCREMENT     2


 displacements (vx,vy,vz) for set N1 and time  0.5000000E-07

        23  0.000000E+00  0.000000E+00 -1.377602E-04

                                INCREMENT     3


 displacements (vx,vy,vz) for set N1 and time  0.7500000E-07

        23  0.000000E+00  0.000000E+00 -2.569851E-04

                                INCREMENT     4


 displacements (vx,vy,vz) for set N1 and time  0.1000000E-06

        23  0.000000E+00  0.000000E+00 -3.897240E-04

                                INCREMENT     5


 displacements (vx,vy,vz) for set N1 and time  0.1250000E-06

        23  0.000000E+00  0.000000E+00 -5.181460E-04

                                INCREMENT     6


 displacements (vx,vy,vz) for set N1 and time  0.1500000E-06

        23  0.000000E+00  0.000000E+00 -6.250129E-04

                                INCREMENT     7


 displacements (vx,vy,vz) for set N1 and time  0.1750000E-06

        23  0.000000E+00  0.000000E+00 -6.959887E-04

                                INCREMENT     8


 displacements (vx,vy,vz) for set N1 and time  0.2000000E-06

        23  0.000000E+00  0.000000E+00 -7.215550E-04

                                INCREMENT     9


 displacements (vx,vy,vz) for set N1 and time  0.2250000E-06

        23  0.000000E+00  0.000000E+00 -6.982812E-04

                                INCREMENT    10


 displacements (vx,vy,vz) for set N1 and time  0.2500000E-06

        23  0.000000E+00  0.000000E+00 -6.292818E-04

                                INCREMENT    11


 displacements (vx,vy,vz) for set N1 and time  0.2750000E-06

        23  0.000000E+00  0.000000E+00 -5.238039E-04

                                INCREMENT    12


 displacements (vx,vy,vz) for set N1 and time  0.3000000E-06

        23  0.000000E+00  0.000000E+00 -3.959954E-04

                                INCREMENT    13


 displacements (vx,vy,vz) for set N1 and time  0.3250000E-06

        23  0.000000E+00  0.000000E+00 -2.630140E-04

                                INCREMENT    14


 displacements (vx,vy,vz) for set N1 and time  0.3500000E-06

        23  0.000000E+00  0.000000E+00 -1.427278E-04

                                INCREMENT    15


 displacements (vx,vy,vz) for set N1 and time  0.3750000E-06

        23  0.000000E+00  0.000000E+00 -5.131150E-05

                                INCREMENT    16


 displacements (vx,vy,vz) for set N1 and time  0.4000000E-06

        23  0.000000E+00  0.000000E+00 -1.065731E-06

                                INCREMENT    17


 displacements (vx,vy,vz) for set N1 and time  0.4250000E-06

        23  0.000000E+00  0.000000E+00  1.246110E-06

                                INCREMENT    18


 displacements (vx,vy,vz) for set N1 and time  0.4500000E-06

        23  0.000000E+00  0.000000E+00 -4.451897E-05

                                INCREMENT    19


 displacements (vx,vy,vz) for set N1 and time  0.4750000E-06

        23  0.000000E+00  0.000000E+00 -1.322015E-04

                                INCREMENT    20


 displacements (vx,vy,vz) for set N1 and time  0.5000000E-06

        23  0.000000E+00  0.000000E+00 -2.500057E-04

                                INCREMENT    21


 displacements (vx,vy,vz) for set N1 and time  0.5250000E-06

        23  0.000000E+00  0.000000E+00 -3.820943E-04

                                INCREMENT    22


 displacements (vx,vy,vz) for set N1 and time  0.5500000E-06

        23  0.000000E+00  0.000000E+00 -5.107231E-04

                                INCREMENT    23


 displacements (vx,vy,vz) for set N1 and time  0.5750000E-06

        23  0.000000E+00  0.000000E+00 -6.186257E-04

                                INCREMENT    24


 displacements (vx,vy,vz) for set N1 and time  0.6000000E-06

        23  0.000000E+00  0.000000E+00 -6.913267E-04

                                INCREMENT    25


 displacements (vx,vy,vz) for set N1 and time  0.6250000E-06

        23  0.000000E+00  0.000000E+00 -7.190763E-04

                                INCREMENT    26


 displacements (vx,vy,vz) for set N1 and time  0.6500000E-06

        23  0.000000E+00  0.000000E+00 -6.981512E-04

                                INCREMENT    27


 displacements (vx,vy,vz) for set N1 and time  0.6750000E-06

        23  0.000000E+00  0.000000E+00 -6.313512E-04

                                INCREMENT    28


 displacements (vx,vy,vz) for set N1 and time  0.7000000E-06

        23  0.000000E+00  0.000000E+00 -5.276284E-04

                                INCREMENT    29


 displacements (vx,vy,vz) for set N1 and time  0.7250000E-06

        23  0.000000E+00  0.000000E+00 -4.008947E-04

                                INCREMENT    30


 displacements (vx,vy,vz) for set N1 and time  0.7500000E-06

        23  0.000000E+00  0.000000E+00 -2.681630E-04

                                INCREMENT    31


 displacements (vx,vy,vz) for set N1 and time  0.7750000E-06

        23  0.000000E+00  0.000000E+00 -1.472669E-04

                                INCREMENT    32


 displacements (vx,vy,vz) for set N1 and time  0.8000000E-06

        23  0.000000E+00  0.000000E+00 -5.446270E-05

                                INCREMENT    33


 displacements (vx,vy,vz) for set N1 and time  0.8250000E-06

        23  0.000000E+00  0.000000E+00 -2.237333E-06

                                INCREMENT    34


 displacements (vx,vy,vz) for set N1 and time  0.8500000E-06

        23  0.000000E+00  0.000000E+00  2.379457E-06

                                INCREMENT    35


 displacements (vx,vy,vz) for set N1 and time  0.8750000E-06

        23  0.000000E+00  0.000000E+00 -4.108068E-05

                                INCREMENT    36


 displacements (vx,vy,vz) for set N1 and time  0.9000000E-06

        23  0.000000E+00  0.000000E+00 -1.267684E-04

                                INCREMENT    37


 displacements (vx,vy,vz) for set N1 and time  0.9250000E-06

        23  0.000000E+00  0.000000E+00 -2.431561E-04

                                INCREMENT    38


 displacements (vx,vy,vz) for set N1 and time  0.9500000E-06

        23  0.000000E+00  0.000000E+00 -3.745963E-04

                                INCREMENT    39


 displacements (vx,vy,vz) for set N1 and time  0.9750000E-06

        23  0.000000E+00  0.000000E+00 -5.034314E-04

                                INCREMENT    40


 displacements (vx,vy,vz) for set N1 and time  0.1000000E-05

        23  0.000000E+00  0.000000E+00 -6.123665E-04

                                INCREMENT    41


 displacements (vx,vy,vz) for set N1 and time  0.1025000E-05

        23  0.000000E+00  0.000000E+00 -6.867873E-04

                                INCREMENT    42


 displacements (vx,vy,vz) for set N1 and time  0.1050000E-05

        23  0.000000E+00  0.000000E+00 -7.167133E-04

                                INCREMENT    43


 displacements (vx,vy,vz) for set N1 and time  0.1075000E-05

        23  0.000000E+00  0.000000E+00 -6.981295E-04

                                INCREMENT    44


 displacements (vx,vy,vz) for set N1 and time  0.1100000E-05

        23  0.000000E+00  0.000000E+00 -6.335218E-04

                                INCREMENT    45


 displacements (vx,vy,vz) for set N1 and time  0.1125000E-05

        23  0.000000E+00  0.000000E+00 -5.315482E-04

                                INCREMENT    46


 displacements (vx,vy,vz) for set N1 and time  0.1150000E-05

        23  0.000000E+00  0.000000E+00 -4.058856E-04

                                INCREMENT    47


 displacements (vx,vy,vz) for set N1 and time  0.1175000E-05

        23  0.000000E+00  0.000000E+00 -2.734023E-04

                                INCREMENT    48


 displacements (vx,vy,vz) for set N1 and time  0.1200000E-05

        23  0.000000E+00  0.000000E+00 -1.518979E-04

                                INCREMENT    49


 displacements (vx,vy,vz) for set N1 and time  0.1225000E-05

        23  0.000000E+00  0.000000E+00 -5.770989E-05

                                INCREMENT    50


 displacements (vx,vy,vz) for set N1 and time  0.1250000E-05

        23  0.000000E+00  0.000000E+00 -3.510975E-06

                                INCREMENT    51


 displacements (vx,vy,vz) for set N1 and time  0.1275000E-05

        23  0.000000E+00  0.000000E+00  3.403555E-06

                                INCREMENT    52


 displacements (vx,vy,vz) for set N1 and time  0.1300000E-05

        23  0.000000E+00  0.000000E+00 -3.775884E-05

                                INCREMENT    53


 displacements (vx,vy,vz) for set N1 and time  0.1325000E-05

        23  0.000000E+00  0.000000E+00 -1.214580E-04

                                INCREMENT    54


 displacements (vx,vy,vz) for set N1 and time  0.1350000E-05

        23  0.000000E+00  0.000000E+00 -2.364336E-04

                                INCREMENT    55


 displacements (vx,vy,vz) for set N1 and time  0.1375000E-05

        23  0.000000E+00  0.000000E+00 -3.672277E-04

                                INCREMENT    56


 displacements (vx,vy,vz) for set N1 and time  0.1400000E-05

        23  0.000000E+00  0.000000E+00 -4.962685E-04

                                INCREMENT    57


 displacements (vx,vy,vz) for set N1 and time  0.1425000E-05

        23  0.000000E+00  0.000000E+00 -6.062332E-04

                                INCREMENT    58


 displacements (vx,vy,vz) for set N1 and time  0.1450000E-05

        23  0.000000E+00  0.000000E+00 -6.823688E-04

                                INCREMENT    59


 displacements (vx,vy,vz) for set N1 and time  0.1475000E-05

        23  0.000000E+00  0.000000E+00 -7.144648E-04

                                INCREMENT    60


 displacements (vx,vy,vz) for set N1 and time  0.1500000E-05

        23  0.000000E+00  0.000000E+00 -6.982154E-04

                                INCREMENT    61


 displacements (vx,vy,vz) for set N1 and time  0.1525000E-05

        23  0.000000E+00  0.000000E+00 -6.357935E-04

                                INCREMENT    62


 displacements (vx,vy,vz) for set N1 and time  0.1550000E-05

        23  0.000000E+00  0.000000E+00 -5.355640E-04

                                INCREMENT    63


 displacements (vx,vy,vz) for set N1 and time  0.1575000E-05

        23  0.000000E+00  0.000000E+00 -4.109691E-04

                                INCREMENT    64


 displacements (vx,vy,vz) for set N1 and time  0.1600000E-05

        23  0.000000E+00  0.000000E+00 -2.787333E-04

                                INCREMENT    65


 displacements (vx,vy,vz) for set N1 and time  0.1625000E-05

        23  0.000000E+00  0.000000E+00 -1.566221E-04

                                INCREMENT    66


 displacements (vx,vy,vz) for set N1 and time  0.1650000E-05

        23  0.000000E+00  0.000000E+00 -6.105401E-05

                                INCREMENT    67


 displacements (vx,vy,vz) for set N1 and time  0.1675000E-05

        23  0.000000E+00  0.000000E+00 -4.887046E-06

                                INCREMENT    68


 displacements (vx,vy,vz) for set N1 and time  0.1700000E-05

        23  0.000000E+00  0.000000E+00  4.318742E-06

                                INCREMENT    69


 displacements (vx,vy,vz) for set N1 and time  0.1725000E-05

        23  0.000000E+00  0.000000E+00 -3.455239E-05

                                INCREMENT    70


 displacements (vx,vy,vz) for set N1 and time  0.1750000E-05

        23  0.000000E+00  0.000000E+00 -1.162686E-04

                                INCREMENT    71


 displacements (vx,vy,vz) for set N1 and time  0.1775000E-05

        23  0.000000E+00  0.000000E+00 -2.298362E-04

                                INCREMENT    72


 displacements (vx,vy,vz) for set N1 and time  0.1800000E-05

        23  0.000000E+00  0.000000E+00 -3.599858E-04

                                INCREMENT    73


 displacements (vx,vy,vz) for set N1 and time  0.1825000E-05

        23  0.000000E+00  0.000000E+00 -4.892319E-04

                                INCREMENT    74


 displacements (vx,vy,vz) for set N1 and time  0.1850000E-05

        23  0.000000E+00  0.000000E+00 -6.002233E-04

                                INCREMENT    75


 displacements (vx,vy,vz) for set N1 and time  0.1875000E-05

        23  0.000000E+00  0.000000E+00 -6.780690E-04

                                INCREMENT    76


 displacements (vx,vy,vz) for set N1 and time  0.1900000E-05

        23  0.000000E+00  0.000000E+00 -7.123290E-04

                                INCREMENT    77


 displacements (vx,vy,vz) for set N1 and time  0.1925000E-05

        23  0.000000E+00  0.000000E+00 -6.984073E-04

                                INCREMENT    78


 displacements (vx,vy,vz) for set N1 and time  0.1950000E-05

        23  0.000000E+00  0.000000E+00 -6.381649E-04

                                INCREMENT    79


 displacements (vx,vy,vz) for set N1 and time  0.1975000E-05

        23  0.000000E+00  0.000000E+00 -5.396742E-04

                                INCREMENT    80


 displacements (vx,vy,vz) for set N1 and time  0.2000000E-05

        23  0.000000E+00  0.000000E+00 -4.161439E-04

                                INCREMENT    81


 displacements (vx,vy,vz) for set N1 and time  0.2025000E-05

        23  0.000000E+00  0.000000E+00 -2.841549E-04

                                INCREMENT    82


 displacements (vx,vy,vz) for set N1 and time  0.2050000E-05

        23  0.000000E+00  0.000000E+00 -1.614388E-04

                                INCREMENT    83


 displacements (vx,vy,vz) for set N1 and time  0.2075000E-05

        23  0.000000E+00  0.000000E+00 -6.449473E-05

                                INCREMENT    84


 displacements (vx,vy,vz) for set N1 and time  0.2100000E-05

        23  0.000000E+00  0.000000E+00 -6.365482E-06

                                INCREMENT    85


 displacements (vx,vy,vz) for set N1 and time  0.2125000E-05

        23  0.000000E+00  0.000000E+00  5.124901E-06

                                INCREMENT    86


 displacements (vx,vy,vz) for set N1 and time  0.2150000E-05

        23  0.000000E+00  0.000000E+00 -3.146164E-05

                                INCREMENT    87


 displacements (vx,vy,vz) for set N1 and time  0.2175000E-05

        23  0.000000E+00  0.000000E+00 -1.112007E-04

                                INCREMENT    88


 displacements (vx,vy,vz) for set N1 and time  0.2200000E-05

        23  0.000000E+00  0.000000E+00 -2.233644E-04

                                INCREMENT    89


 displacements (vx,vy,vz) for set N1 and time  0.2225000E-05

        23  0.000000E+00  0.000000E+00 -3.528716E-04

                                INCREMENT    90


 displacements (vx,vy,vz) for set N1 and time  0.2250000E-05

        23  0.000000E+00  0.000000E+00 -4.823224E-04

                                INCREMENT    91


 displacements (vx,vy,vz) for set N1 and time  0.2275000E-05

        23  0.000000E+00  0.000000E+00 -5.943376E-04

                                INCREMENT    92


 displacements (vx,vy,vz) for set N1 and time  0.2300000E-05

        23  0.000000E+00  0.000000E+00 -6.738884E-04

                                INCREMENT    93


 displacements (vx,vy,vz) for set N1 and time  0.2325000E-05

        23  0.000000E+00  0.000000E+00 -7.103059E-04

                                INCREMENT    94


 displacements (vx,vy,vz) for set N1 and time  0.2350000E-05

        23  0.000000E+00  0.000000E+00 -6.987050E-04

                                INCREMENT    95


 displacements (vx,vy,vz) for set N1 and time  0.2375000E-05

        23  0.000000E+00  0.000000E+00 -6.406357E-04

                                INCREMENT    96


 displacements (vx,vy,vz) for set N1 and time  0.2400000E-05

        23  0.000000E+00  0.000000E+00 -5.438788E-04

                                INCREMENT    97


 displacements (vx,vy,vz) for set N1 and time  0.2425000E-05

        23  0.000000E+00  0.000000E+00 -4.214101E-04

                                INCREMENT    98


 displacements (vx,vy,vz) for set N1 and time  0.2450000E-05

        23  0.000000E+00  0.000000E+00 -2.896673E-04

                                INCREMENT    99


 displacements (vx,vy,vz) for set N1 and time  0.2475000E-05

        23  0.000000E+00  0.000000E+00 -1.663482E-04

                                INCREMENT   100


 displacements (vx,vy,vz) for set N1 and time  0.2500000E-05

        23  0.000000E+00  0.000000E+00 -6.803243E-05

                                INCREMENT   101


 displacements (vx,vy,vz) for set N1 and time  0.2525000E-05

        23  0.000000E+00  0.000000E+00 -7.946935E-06

                                INCREMENT   102


 displacements (vx,vy,vz) for set N1 and time  0.2550000E-05

        23  0.000000E+00  0.000000E+00  5.821096E-06

                                INCREMENT   103


 displacements (vx,vy,vz) for set N1 and time  0.2575000E-05

        23  0.000000E+00  0.000000E+00 -2.848780E-05

                                INCREMENT   104


 displacements (vx,vy,vz) for set N1 and time  0.2600000E-05

        23  0.000000E+00  0.000000E+00 -1.062558E-04

                                INCREMENT   105


 displacements (vx,vy,vz) for set N1 and time  0.2625000E-05

        23  0.000000E+00  0.000000E+00 -2.170197E-04

                                INCREMENT   106


 displacements (vx,vy,vz) for set N1 and time  0.2650000E-05

        23  0.000000E+00  0.000000E+00 -3.458865E-04

                                INCREMENT   107


 displacements (vx,vy,vz) for set N1 and time  0.2675000E-05

        23  0.000000E+00  0.000000E+00 -4.755415E-04

                                INCREMENT   108


 displacements (vx,vy,vz) for set N1 and time  0.2700000E-05

        23  0.000000E+00  0.000000E+00 -5.885775E-04

                                INCREMENT   109


 displacements (vx,vy,vz) for set N1 and time  0.2725000E-05

        23  0.000000E+00  0.000000E+00 -6.698284E-04

                                INCREMENT   110


 displacements (vx,vy,vz) for set N1 and time  0.2750000E-05

        23  0.000000E+00  0.000000E+00 -7.083969E-04

                                INCREMENT   111


 displacements (vx,vy,vz) for set N1 and time  0.2775000E-05

        23  0.000000E+00  0.000000E+00 -6.991098E-04

                                INCREMENT   112


 displacements (vx,vy,vz) for set N1 and time  0.2800000E-05

        23  0.000000E+00  0.000000E+00 -6.432068E-04

                                INCREMENT   113


 displacements (vx,vy,vz) for set N1 and time  0.2825000E-05

        23  0.000000E+00  0.000000E+00 -5.481782E-04

                                INCREMENT   114


 displacements (vx,vy,vz) for set N1 and time  0.2850000E-05

        23  0.000000E+00  0.000000E+00 -4.267674E-04

                                INCREMENT   115


 displacements (vx,vy,vz) for set N1 and time  0.2875000E-05

        23  0.000000E+00  0.000000E+00 -2.952696E-04

                                INCREMENT   116


 displacements (vx,vy,vz) for set N1 and time  0.2900000E-05

        23  0.000000E+00  0.000000E+00 -1.713488E-04

                                INCREMENT   117


 displacements (vx,vy,vz) for set N1 and time  0.2925000E-05

        23  0.000000E+00  0.000000E+00 -7.166510E-05

                                INCREMENT   118


 displacements (vx,vy,vz) for set N1 and time  0.2950000E-05

        23  0.000000E+00  0.000000E+00 -9.628990E-06

                                INCREMENT   119


 displacements (vx,vy,vz) for set N1 and time  0.2975000E-05

        23  0.000000E+00  0.000000E+00  6.409937E-06

                                INCREMENT   120


 displacements (vx,vy,vz) for set N1 and time  0.3000000E-05

        23  0.000000E+00  0.000000E+00 -2.562806E-05

                                INCREMENT   121


 displacements (vx,vy,vz) for set N1 and time  0.3025000E-05

        23  0.000000E+00  0.000000E+00 -1.014307E-04

                                INCREMENT   122


 displacements (vx,vy,vz) for set N1 and time  0.3050000E-05

        23  0.000000E+00  0.000000E+00 -2.107992E-04

                                INCREMENT   123


 displacements (vx,vy,vz) for set N1 and time  0.3075000E-05

        23  0.000000E+00  0.000000E+00 -3.390275E-04

                                INCREMENT   124


 displacements (vx,vy,vz) for set N1 and time  0.3100000E-05

        23  0.000000E+00  0.000000E+00 -4.688861E-04

                                INCREMENT   125


 displacements (vx,vy,vz) for set N1 and time  0.3125000E-05

        23  0.000000E+00  0.000000E+00 -5.829400E-04

                                INCREMENT   126


 displacements (vx,vy,vz) for set N1 and time  0.3150000E-05

        23  0.000000E+00  0.000000E+00 -6.658859E-04

                                INCREMENT   127


 displacements (vx,vy,vz) for set N1 and time  0.3175000E-05

        23  0.000000E+00  0.000000E+00 -7.065993E-04

                                INCREMENT   128


 displacements (vx,vy,vz) for set N1 and time  0.3200000E-05

        23  0.000000E+00  0.000000E+00 -6.996192E-04

                                INCREMENT   129


 displacements (vx,vy,vz) for set N1 and time  0.3225000E-05

        23  0.000000E+00  0.000000E+00 -6.458761E-04

                                INCREMENT   130


 displacements (vx,vy,vz) for set N1 and time  0.3250000E-05

        23  0.000000E+00  0.000000E+00 -5.525706E-04

                                INCREMENT   131


 displacements (vx,vy,vz) for set N1 and time  0.3275000E-05

        23  0.000000E+00  0.000000E+00 -4.322148E-04

                                INCREMENT   132


 displacements (vx,vy,vz) for set N1 and time  0.3300000E-05

        23  0.000000E+00  0.000000E+00 -3.009613E-04

                                INCREMENT   133


 displacements (vx,vy,vz) for set N1 and time  0.3325000E-05

        23  0.000000E+00  0.000000E+00 -1.764409E-04

                                INCREMENT   134


 displacements (vx,vy,vz) for set N1 and time  0.3350000E-05

        23  0.000000E+00  0.000000E+00 -7.539348E-05

                                INCREMENT   135


 displacements (vx,vy,vz) for set N1 and time  0.3375000E-05

        23  0.000000E+00  0.000000E+00 -1.141266E-05

                                INCREMENT   136


 displacements (vx,vy,vz) for set N1 and time  0.3400000E-05

        23  0.000000E+00  0.000000E+00  6.890370E-06

                                INCREMENT   137


 displacements (vx,vy,vz) for set N1 and time  0.3425000E-05

        23  0.000000E+00  0.000000E+00 -2.288352E-05

                                INCREMENT   138


 displacements (vx,vy,vz) for set N1 and time  0.3450000E-05

        23  0.000000E+00  0.000000E+00 -9.672681E-05

                                INCREMENT   139


 displacements (vx,vy,vz) for set N1 and time  0.3475000E-05

        23  0.000000E+00  0.000000E+00 -2.047040E-04

                                INCREMENT   140


 displacements (vx,vy,vz) for set N1 and time  0.3500000E-05

        23  0.000000E+00  0.000000E+00 -3.322957E-04

                                INCREMENT   141


 displacements (vx,vy,vz) for set N1 and time  0.3525000E-05

        23  0.000000E+00  0.000000E+00 -4.623575E-04

                                INCREMENT   142


 displacements (vx,vy,vz) for set N1 and time  0.3550000E-05

        23  0.000000E+00  0.000000E+00 -5.774262E-04

                                INCREMENT   143


 displacements (vx,vy,vz) for set N1 and time  0.3575000E-05

        23  0.000000E+00  0.000000E+00 -6.620622E-04

                                INCREMENT   144


 displacements (vx,vy,vz) for set N1 and time  0.3600000E-05

        23  0.000000E+00  0.000000E+00 -7.049140E-04

                                INCREMENT   145


 displacements (vx,vy,vz) for set N1 and time  0.3625000E-05

        23  0.000000E+00  0.000000E+00 -7.002340E-04

                                INCREMENT   146


 displacements (vx,vy,vz) for set N1 and time  0.3650000E-05

        23  0.000000E+00  0.000000E+00 -6.486446E-04

                                INCREMENT   147


 displacements (vx,vy,vz) for set N1 and time  0.3675000E-05

        23  0.000000E+00  0.000000E+00 -5.570574E-04

                                INCREMENT   148


 displacements (vx,vy,vz) for set N1 and time  0.3700000E-05

        23  0.000000E+00  0.000000E+00 -4.377536E-04

                                INCREMENT   149


 displacements (vx,vy,vz) for set N1 and time  0.3725000E-05

        23  0.000000E+00  0.000000E+00 -3.067441E-04

                                INCREMENT   150


 displacements (vx,vy,vz) for set N1 and time  0.3750000E-05

        23  0.000000E+00  0.000000E+00 -1.816262E-04

                                INCREMENT   151


 displacements (vx,vy,vz) for set N1 and time  0.3775000E-05

        23  0.000000E+00  0.000000E+00 -7.921935E-05

                                INCREMENT   152


 displacements (vx,vy,vz) for set N1 and time  0.3800000E-05

        23  0.000000E+00  0.000000E+00 -1.329977E-05

                                INCREMENT   153


 displacements (vx,vy,vz) for set N1 and time  0.3825000E-05

        23  0.000000E+00  0.000000E+00  7.260622E-06

                                INCREMENT   154


 displacements (vx,vy,vz) for set N1 and time  0.3850000E-05

        23  0.000000E+00  0.000000E+00 -2.025591E-05

                                INCREMENT   155


 displacements (vx,vy,vz) for set N1 and time  0.3875000E-05

        23  0.000000E+00  0.000000E+00 -9.214565E-05

                                INCREMENT   156


 displacements (vx,vy,vz) for set N1 and time  0.3900000E-05

        23  0.000000E+00  0.000000E+00 -1.987357E-04

                                INCREMENT   157


 displacements (vx,vy,vz) for set N1 and time  0.3925000E-05

        23  0.000000E+00  0.000000E+00 -3.256928E-04

                                INCREMENT   158


 displacements (vx,vy,vz) for set N1 and time  0.3950000E-05

        23  0.000000E+00  0.000000E+00 -4.559572E-04

                                INCREMENT   159


 displacements (vx,vy,vz) for set N1 and time  0.3975000E-05

        23  0.000000E+00  0.000000E+00 -5.720378E-04

                                INCREMENT   160


 displacements (vx,vy,vz) for set N1 and time  0.4000000E-05

        23  0.000000E+00  0.000000E+00 -6.583589E-04

                                INCREMENT   161


 displacements (vx,vy,vz) for set N1 and time  0.4025000E-05

        23  0.000000E+00  0.000000E+00 -7.033427E-04

                                INCREMENT   162


 displacements (vx,vy,vz) for set N1 and time  0.4050000E-05

        23  0.000000E+00  0.000000E+00 -7.009560E-04

                                INCREMENT   163


 displacements (vx,vy,vz) for set N1 and time  0.4075000E-05

        23  0.000000E+00  0.000000E+00 -6.515135E-04

                                INCREMENT   164


 displacements (vx,vy,vz) for set N1 and time  0.4100000E-05

        23  0.000000E+00  0.000000E+00 -5.616390E-04

                                INCREMENT   165


 displacements (vx,vy,vz) for set N1 and time  0.4125000E-05

        23  0.000000E+00  0.000000E+00 -4.433835E-04

                                INCREMENT   166


 displacements (vx,vy,vz) for set N1 and time  0.4150000E-05

        23  0.000000E+00  0.000000E+00 -3.126166E-04

                                INCREMENT   167


 displacements (vx,vy,vz) for set N1 and time  0.4175000E-05

        23  0.000000E+00  0.000000E+00 -1.869022E-04

                                INCREMENT   168


 displacements (vx,vy,vz) for set N1 and time  0.4200000E-05

        23  0.000000E+00  0.000000E+00 -8.313954E-05

                                INCREMENT   169


 displacements (vx,vy,vz) for set N1 and time  0.4225000E-05

        23  0.000000E+00  0.000000E+00 -1.528658E-05

                                INCREMENT   170


 displacements (vx,vy,vz) for set N1 and time  0.4250000E-05

        23  0.000000E+00  0.000000E+00  7.524634E-06

                                INCREMENT   171


 displacements (vx,vy,vz) for set N1 and time  0.4275000E-05

        23  0.000000E+00  0.000000E+00 -1.774108E-05

                                INCREMENT   172


 displacements (vx,vy,vz) for set N1 and time  0.4300000E-05

        23  0.000000E+00  0.000000E+00 -8.768292E-05

                                INCREMENT   173


 displacements (vx,vy,vz) for set N1 and time  0.4325000E-05

        23  0.000000E+00  0.000000E+00 -1.928899E-04

                                INCREMENT   174


 displacements (vx,vy,vz) for set N1 and time  0.4350000E-05

        23  0.000000E+00  0.000000E+00 -3.192143E-04

                                INCREMENT   175


 displacements (vx,vy,vz) for set N1 and time  0.4375000E-05

        23  0.000000E+00  0.000000E+00 -4.496807E-04

                                INCREMENT   176


 displacements (vx,vy,vz) for set N1 and time  0.4400000E-05

        23  0.000000E+00  0.000000E+00 -5.667704E-04

                                INCREMENT   177


 displacements (vx,vy,vz) for set N1 and time  0.4425000E-05

        23  0.000000E+00  0.000000E+00 -6.547718E-04

                                INCREMENT   178


 displacements (vx,vy,vz) for set N1 and time  0.4450000E-05

        23  0.000000E+00  0.000000E+00 -7.018816E-04

                                INCREMENT   179


 displacements (vx,vy,vz) for set N1 and time  0.4475000E-05

        23  0.000000E+00  0.000000E+00 -7.017815E-04

                                INCREMENT   180


 displacements (vx,vy,vz) for set N1 and time  0.4500000E-05

        23  0.000000E+00  0.000000E+00 -6.544799E-04

                                INCREMENT   181

