    1C
    1UUSER                                                              
    1UDATE              05.august.2022                                  
    1UTIME              16:48:59                                        
    1UHOST                                                              
    1UPGM               CalculiX                                        
    1UVERSION           Version DEVELOPMENT                             
    1UCOMPILETIME       Fri Aug  5 15:50:32 CEST 2022                    
    1UDIR                                                               
    1UDBN                                                               
    1UMAT    1EL                                                        
    1UMAT    2SI1                                                       
    2C                            16                                     1
 -1         1 1.00000E+00 1.00000E+00-1.49012E-08
 -1         2 1.00000E+00 0.00000E+00-1.49012E-08
 -1         3 1.00000E+00 0.00000E+00 1.00000E+00
 -1         4 1.00000E+00 1.00000E+00 1.00000E+00
 -1         5-7.45058E-09 1.00000E+00-1.49012E-08
 -1         6-7.45058E-09 0.00000E+00-1.49012E-08
 -1         7-7.45058E-09 0.00000E+00 1.00000E+00
 -1         8-7.45058E-09 1.00000E+00 1.00000E+00
 -1         9 5.00000E-01 6.41421E-01 1.00000E+00
 -1        10 6.41421E-01 5.00000E-01 1.00000E+00
 -1        11 6.41421E-01 5.00000E-01 1.20000E+00
 -1        12 5.00000E-01 6.41421E-01 1.20000E+00
 -1        13 3.58579E-01 5.00000E-01 1.00000E+00
 -1        14 5.00000E-01 3.58579E-01 1.00000E+00
 -1        15 5.00000E-01 3.58579E-01 1.20000E+00
 -1        16 3.58579E-01 5.00000E-01 1.20000E+00
 -3
    3C                             2                                     1
 -1         1    1    0    1
 -2         1         2         3         4         5         6         7         8
 -1         2    1    0    1
 -2         9        10        11        12        13        14        15        16
 -3
    1PSTEP                         1           1           1          
  100CL  101 1.00000E-20          16                     0    1           1
 -4  DISP        4    1
 -5  D1          1    2    1    0
 -5  D2          1    2    2    0
 -5  D3          1    2    3    0
 -5  ALL         1    2    0    0    1ALL
 -1         1 0.00000E+00 0.00000E+00 0.00000E+00
 -1         2 0.00000E+00 0.00000E+00 0.00000E+00
 -1         3 0.00000E+00 0.00000E+00 0.00000E+00
 -1         4 0.00000E+00 0.00000E+00 0.00000E+00
 -1         5 0.00000E+00 0.00000E+00 0.00000E+00
 -1         6 0.00000E+00 0.00000E+00 0.00000E+00
 -1         7 0.00000E+00 0.00000E+00 0.00000E+00
 -1         8 0.00000E+00 0.00000E+00 0.00000E+00
 -1         9-4.67901E-20 2.51832E-05-1.00064E-05
 -1        10 2.51832E-05-8.06766E-17-1.00064E-05
 -1        11 0.00000E+00 0.00000E+00-9.60685E-05
 -1        12 0.00000E+00 0.00000E+00-9.60685E-05
 -1        13-2.51832E-05-8.06921E-17-1.00064E-05
 -1        14-2.12461E-20-2.51832E-05-1.00064E-05
 -1        15 0.00000E+00 0.00000E+00-9.60685E-05
 -1        16 0.00000E+00 0.00000E+00-9.60685E-05
 -3
    1PSTEP                         2           1           1          
  100CL  101 1.00000E-20          16                     0    1           1
 -4  STRESS      6    1
 -5  SXX         1    4    1    1
 -5  SYY         1    4    2    2
 -5  SZZ         1    4    3    3
 -5  SXY         1    4    1    2
 -5  SYZ         1    4    2    3
 -5  SZX         1    4    3    1
 -1         1 0.00000E+00 0.00000E+00 0.00000E+00 0.00000E+00 0.00000E+00 0.00000E+00
 -1         2 0.00000E+00 0.00000E+00 0.00000E+00 0.00000E+00 0.00000E+00 0.00000E+00
 -1         3 0.00000E+00 0.00000E+00 0.00000E+00 0.00000E+00 0.00000E+00 0.00000E+00
 -1         4 0.00000E+00 0.00000E+00 0.00000E+00 0.00000E+00 0.00000E+00 0.00000E+00
 -1         5 0.00000E+00 0.00000E+00 0.00000E+00 0.00000E+00 0.00000E+00 0.00000E+00
 -1         6 0.00000E+00 0.00000E+00 0.00000E+00 0.00000E+00 0.00000E+00 0.00000E+00
 -1         7 0.00000E+00 0.00000E+00 0.00000E+00 0.00000E+00 0.00000E+00 0.00000E+00
 -1         8 0.00000E+00 0.00000E+00 0.00000E+00 0.00000E+00 0.00000E+00 0.00000E+00
 -1         9 1.98052E+01 1.98078E+01-7.83988E+01-1.18588E-14-1.01602E+01 4.86341E-15
 -1        10 1.98078E+01 1.98052E+01-7.83988E+01 3.57917E-12-1.56573E-11-1.01602E+01
 -1        11-5.21432E+01-5.21457E+01-1.21560E+02-9.74392E-16-3.64508E-12-1.01548E+01
 -1        12-5.21457E+01-5.21432E+01-1.21560E+02-2.34964E-15-1.01548E+01 9.96964E-15
 -1        13 1.98078E+01 1.98052E+01-7.83988E+01-3.57901E-12-1.56513E-11 1.01602E+01
 -1        14 1.98052E+01 1.98078E+01-7.83988E+01 1.40293E-14 1.01602E+01 3.44206E-15
 -1        15-5.21457E+01-5.21432E+01-1.21560E+02-3.06588E-15 1.01548E+01-2.42161E-15
 -1        16-5.21432E+01-5.21457E+01-1.21560E+02 7.97076E-16-3.65219E-12 1.01548E+01
 -3
    1PSTEP                         3           1           1          
  100CL  101 1.00000E-20          16                     0    1           1
 -4  FORC        4    1
 -5  F1          1    2    1    0
 -5  F2          1    2    2    0
 -5  F3          1    2    3    0
 -5  ALL         1    2    0    0    1ALL
 -1         1 0.00000E+00 0.00000E+00 0.00000E+00
 -1         2 0.00000E+00 0.00000E+00 0.00000E+00
 -1         3-3.56332E-03 3.56332E-03 9.99995E-01
 -1         4-3.56332E-03-3.56332E-03 9.99995E-01
 -1         5 0.00000E+00 0.00000E+00 0.00000E+00
 -1         6 0.00000E+00 0.00000E+00 0.00000E+00
 -1         7 3.56332E-03 3.56332E-03 9.99995E-01
 -1         8 3.56332E-03-3.56332E-03 9.99995E-01
 -1         9 7.61123E-17 5.75744E-11-1.97206E-09
 -1        10 5.75743E-11 1.12490E-16-1.96037E-09
 -1        11-4.31973E-01-1.02688E-13-9.99995E-01
 -1        12 4.57218E-17-4.31973E-01-9.99995E-01
 -1        13-5.75743E-11 1.35191E-16-1.96037E-09
 -1        14-1.88964E-17-5.75742E-11-1.96048E-09
 -1        15-1.26358E-16 4.31973E-01-9.99995E-01
 -1        16 4.31973E-01-1.02571E-13-9.99995E-01
 -3
    1PSTEP                         4           1           1          
  100CL  101 1.00000E-20          16                     0    1           1
 -4  ENER        1    1
 -5  ENER        1    1    0    0
 -1         1 0.00000E+00
 -1         2 0.00000E+00
 -1         3 0.00000E+00
 -1         4 0.00000E+00
 -1         5 0.00000E+00
 -1         6 0.00000E+00
 -1         7 0.00000E+00
 -1         8 0.00000E+00
 -1         9 1.84824E-02
 -1        10 1.84824E-02
 -1        11 2.42392E-02
 -1        12 2.42392E-02
 -1        13 1.84824E-02
 -1        14 1.84824E-02
 -1        15 2.42392E-02
 -1        16 2.42392E-02
 -3
    1PSTEP                         5           1           1          
  100CL  101 1.00000E-20           4                     0    1           1
 -4  CONTACT     6    1
 -5  COPEN       1    4    1    1
 -5  CSLIP1      1    4    2    2
 -5  CSLIP2      1    4    3    3
 -5  CPRESS      1    4    1    2
 -5  CSHEAR1     1    4    2    3
 -5  CSHEAR2     1    4    3    1
 -1        14-1.00064E-05-2.12461E-20-2.51832E-05 9.99644E+01-2.12461E-15-2.51832E+00
 -1        13-1.00064E-05-2.51832E-05-8.06921E-17 9.99644E+01-2.51832E+00-8.06921E-12
 -1        10-1.00064E-05 2.51832E-05-8.06766E-17 9.99644E+01 2.51832E+00-8.06766E-12
 -1         9-1.00064E-05-4.73456E-20 2.51832E-05 9.99644E+01-4.73456E-15 2.51832E+00
 -3
    1PSTEP                         6           1           1          
  100CL  101 1.00000E-20          16                     0    1           1
 -4  ERROR       1    1
 -5  STR(%)      1    1    0    0
 -1         1 0.00000E+00
 -1         2 0.00000E+00
 -1         3 0.00000E+00
 -1         4 0.00000E+00
 -1         5 0.00000E+00
 -1         6 0.00000E+00
 -1         7 0.00000E+00
 -1         8 0.00000E+00
 -1         9 1.04985E+01
 -1        10 1.04985E+01
 -1        11 1.04985E+01
 -1        12 1.04985E+01
 -1        13 1.04985E+01
 -1        14 1.04985E+01
 -1        15 1.04985E+01
 -1        16 1.04985E+01
 -3
    1PSTEP                         7         296           2          
  100CL  102 2.00000E-06          16                     1    2           1
 -4  DISP        4    1
 -5  D1          1    2    1    0
 -5  D2          1    2    2    0
 -5  D3          1    2    3    0
 -5  ALL         1    2    0    0    1ALL
 -1         1 0.00000E+00 0.00000E+00 0.00000E+00
 -1         2 0.00000E+00 0.00000E+00 0.00000E+00
 -1         3 0.00000E+00 0.00000E+00 0.00000E+00
 -1         4 0.00000E+00 0.00000E+00 0.00000E+00
 -1         5 0.00000E+00 0.00000E+00 0.00000E+00
 -1         6 0.00000E+00 0.00000E+00 0.00000E+00
 -1         7 0.00000E+00 0.00000E+00 0.00000E+00
 -1         8 0.00000E+00 0.00000E+00 0.00000E+00
 -1         9 1.19054E-04 3.18709E-05-7.17857E-06
 -1        10 1.88862E-04 2.32243E-17 1.82828E-05
 -1        11 0.00000E+00 0.00000E+00-3.31348E-06
 -1        12 0.00000E+00 0.00000E+00-9.13167E-05
 -1        13 1.81306E-04 5.84372E-17-1.92435E-05
 -1        14 1.19054E-04-3.18709E-05-7.17857E-06
 -1        15 0.00000E+00 0.00000E+00-9.13167E-05
 -1        16 0.00000E+00 0.00000E+00-1.70568E-04
 -3
    1PSTEP                         8         296           2          
  100CL  102 2.00000E-06          16                     1    2           1
 -4  STRESS      6    1
 -5  SXX         1    4    1    1
 -5  SYY         1    4    2    2
 -5  SZZ         1    4    3    3
 -5  SXY         1    4    1    2
 -5  SYZ         1    4    2    3
 -5  SZX         1    4    3    1
 -1         1 0.00000E+00 0.00000E+00 0.00000E+00 0.00000E+00 0.00000E+00 0.00000E+00
 -1         2 0.00000E+00 0.00000E+00 0.00000E+00 0.00000E+00 0.00000E+00 0.00000E+00
 -1         3 0.00000E+00 0.00000E+00 0.00000E+00 0.00000E+00 0.00000E+00 0.00000E+00
 -1         4 0.00000E+00 0.00000E+00 0.00000E+00 0.00000E+00 0.00000E+00 0.00000E+00
 -1         5 0.00000E+00 0.00000E+00 0.00000E+00 0.00000E+00 0.00000E+00 0.00000E+00
 -1         6 0.00000E+00 0.00000E+00 0.00000E+00 0.00000E+00 0.00000E+00 0.00000E+00
 -1         7 0.00000E+00 0.00000E+00 0.00000E+00 0.00000E+00 0.00000E+00 0.00000E+00
 -1         8 0.00000E+00 0.00000E+00 0.00000E+00 0.00000E+00 0.00000E+00 0.00000E+00
 -1         9-1.60303E+01 1.60600E+01-8.82560E+01-3.77117E+01-1.66648E+01-3.73035E+01
 -1        10 1.53981E+02 1.10495E+02 5.66525E+01-9.23839E-12-1.91053E-10-6.17528E+01
 -1        11-1.29383E+01-1.30058E+01-3.04181E+01 2.22045E-14-1.57829E-12-2.59728E+01
 -1        12-5.09130E+01-5.09401E+01-1.18800E+02 1.59699E-02-1.53509E+01-2.95074E-01
 -1        13-1.88638E+02-8.13016E+01-2.39606E+02 1.01683E-11-2.04812E-10-6.61192E+01
 -1        14-1.60303E+01 1.60600E+01-8.82560E+01 3.77117E+01 1.66648E+01-3.73035E+01
 -1        15-5.09130E+01-5.09401E+01-1.18800E+02-1.59699E-02 1.53509E+01-2.95074E-01
 -1        16-9.15732E+01-9.16396E+01-2.13572E+02 1.37668E-14-1.58078E-11-2.78669E+01
 -3
    1PSTEP                         9         296           2          
  100CL  102 2.00000E-06          16                     1    2           1
 -4  FORC        4    1
 -5  F1          1    2    1    0
 -5  F2          1    2    2    0
 -5  F3          1    2    3    0
 -5  ALL         1    2    0    0    1ALL
 -1         1 0.00000E+00 0.00000E+00 0.00000E+00
 -1         2 0.00000E+00 0.00000E+00 0.00000E+00
 -1         3-9.20870E-02 4.51044E-03 7.03702E-01
 -1         4-9.20870E-02-4.51044E-03 7.03702E-01
 -1         5 0.00000E+00 0.00000E+00 0.00000E+00
 -1         6 0.00000E+00 0.00000E+00 0.00000E+00
 -1         7-1.17673E-01 4.50829E-03 9.75253E-01
 -1         8-1.17673E-01-4.50829E-03 9.75253E-01
 -1         9 6.61396E-02-1.35011E-02 2.89880E-01
 -1        10 2.89334E-01 5.01688E-13 1.53906E-01
 -1        11-6.69913E-01-1.54659E-12-9.80971E-01
 -1        12-5.32149E-01-4.67650E-01-1.09020E+00
 -1        13 1.28217E+00 6.01908E-13 1.13750E-01
 -1        14 6.61396E-02 1.35011E-02 2.89880E-01
 -1        15-5.32149E-01 4.67650E-01-1.09020E+00
 -1        16 4.49946E-01-1.59628E-12-1.04396E+00
 -3
    1PSTEP                        10         296           2          
  100CL  102 2.00000E-06          16                     1    2           1
 -4  ENER        1    1
 -5  ENER        1    1    0    0
 -1         1 0.00000E+00
 -1         2 0.00000E+00
 -1         3 0.00000E+00
 -1         4 0.00000E+00
 -1         5 0.00000E+00
 -1         6 0.00000E+00
 -1         7 0.00000E+00
 -1         8 0.00000E+00
 -1         9 2.99531E-02
 -1        10 5.61410E-02
 -1        11 1.57958E-02
 -1        12 4.22393E-02
 -1        13 1.38974E-01
 -1        14 2.99531E-02
 -1        15 4.22393E-02
 -1        16 9.99013E-02
 -3
    1PSTEP                        11         296           2          
  100CL  102 2.00000E-06           4                     1    2           1
 -4  CONTACT     6    1
 -5  COPEN       1    4    1    1
 -5  CSLIP1      1    4    2    2
 -5  CSLIP2      1    4    3    3
 -5  CPRESS      1    4    1    2
 -5  CSHEAR1     1    4    2    3
 -5  CSHEAR2     1    4    3    1
 -1        14-7.17857E-06 1.19054E-04-3.18709E-05 7.16857E+01 1.19054E+01-3.18709E+00
 -1        13-1.92435E-05 1.81306E-04 5.84372E-17 1.92335E+02 1.81306E+01 5.84372E-12
 -1        10 1.82828E-05 1.88862E-04 2.32243E-17 0.00000E+00-0.00000E+00 0.00000E+00
 -1         9-7.17857E-06 1.19054E-04 3.18709E-05 7.16857E+01 1.19054E+01 3.18709E+00
 -3
    1PSTEP                        12         296           2          
  100CL  102 2.00000E-06          16                     1    2           1
 -4  ERROR       1    1
 -5  STR(%)      1    1    0    0
 -1         1 0.00000E+00
 -1         2 0.00000E+00
 -1         3 0.00000E+00
 -1         4 0.00000E+00
 -1         5 0.00000E+00
 -1         6 0.00000E+00
 -1         7 0.00000E+00
 -1         8 0.00000E+00
 -1         9 5.99647E+01
 -1        10 5.99647E+01
 -1        11 5.99647E+01
 -1        12 5.99647E+01
 -1        13 5.99647E+01
 -1        14 5.99647E+01
 -1        15 5.99647E+01
 -1        16 5.99647E+01
 -3
 9999
