
                        S T E P       1


                                INCREMENT     1


 displacements (vx,vy,vz) for set N1 and time  0.2500000E-07

        23  0.000000E+00  0.000000E+00 -4.807692E-05

                                INCREMENT     2


 displacements (vx,vy,vz) for set N1 and time  0.5000000E-07

        23  0.000000E+00  0.000000E+00 -1.377589E-04

                                INCREMENT     3


 displacements (vx,vy,vz) for set N1 and time  0.7500000E-07

        23  0.000000E+00  0.000000E+00 -2.569735E-04

                                INCREMENT     4


 displacements (vx,vy,vz) for set N1 and time  0.1000000E-06

        23  0.000000E+00  0.000000E+00 -3.896727E-04

                                INCREMENT     5


 displacements (vx,vy,vz) for set N1 and time  0.1250000E-06

        23  0.000000E+00  0.000000E+00 -5.179936E-04

                                INCREMENT     6


 displacements (vx,vy,vz) for set N1 and time  0.1500000E-06

        23  0.000000E+00  0.000000E+00 -6.246625E-04

                                INCREMENT     7


 displacements (vx,vy,vz) for set N1 and time  0.1750000E-06

        23  0.000000E+00  0.000000E+00 -6.953207E-04

                                INCREMENT     8


 displacements (vx,vy,vz) for set N1 and time  0.2000000E-06

        23  0.000000E+00  0.000000E+00 -7.204569E-04

                                INCREMENT     9


 displacements (vx,vy,vz) for set N1 and time  0.2250000E-06

        23  0.000000E+00  0.000000E+00 -6.966879E-04

                                INCREMENT    10


 displacements (vx,vy,vz) for set N1 and time  0.2500000E-06

        23  0.000000E+00  0.000000E+00 -6.272129E-04

                                INCREMENT    11


 displacements (vx,vy,vz) for set N1 and time  0.2750000E-06

        23  0.000000E+00  0.000000E+00 -5.213837E-04

                                INCREMENT    12


 displacements (vx,vy,vz) for set N1 and time  0.3000000E-06

        23  0.000000E+00  0.000000E+00 -3.934463E-04

                                INCREMENT    13


 displacements (vx,vy,vz) for set N1 and time  0.3250000E-06

        23  0.000000E+00  0.000000E+00 -2.606226E-04

                                INCREMENT    14


 displacements (vx,vy,vz) for set N1 and time  0.3500000E-06

        23  0.000000E+00  0.000000E+00 -1.407926E-04

                                INCREMENT    15


 displacements (vx,vy,vz) for set N1 and time  0.3750000E-06

        23  0.000000E+00  0.000000E+00 -5.008720E-05

                                INCREMENT    16


 displacements (vx,vy,vz) for set N1 and time  0.4000000E-06

        23  0.000000E+00  0.000000E+00 -7.166093E-07

                                INCREMENT    17


 displacements (vx,vy,vz) for set N1 and time  0.4250000E-06

        23  0.000000E+00  0.000000E+00  6.730959E-07

                                INCREMENT    18


 displacements (vx,vy,vz) for set N1 and time  0.4500000E-06

        23  0.000000E+00  0.000000E+00 -4.601412E-05

                                INCREMENT    19


 displacements (vx,vy,vz) for set N1 and time  0.4750000E-06

        23  0.000000E+00  0.000000E+00 -1.344935E-04

                                INCREMENT    20


 displacements (vx,vy,vz) for set N1 and time  0.5000000E-06

        23  0.000000E+00  0.000000E+00 -2.528544E-04

                                INCREMENT    21


 displacements (vx,vy,vz) for set N1 and time  0.5250000E-06

        23  0.000000E+00  0.000000E+00 -3.851639E-04

                                INCREMENT    22


 displacements (vx,vy,vz) for set N1 and time  0.5500000E-06

        23  0.000000E+00  0.000000E+00 -5.136113E-04

                                INCREMENT    23


 displacements (vx,vy,vz) for set N1 and time  0.5750000E-06

        23  0.000000E+00  0.000000E+00 -6.209061E-04

                                INCREMENT    24


 displacements (vx,vy,vz) for set N1 and time  0.6000000E-06

        23  0.000000E+00  0.000000E+00 -6.926052E-04

                                INCREMENT    25


 displacements (vx,vy,vz) for set N1 and time  0.6250000E-06

        23  0.000000E+00  0.000000E+00 -7.190573E-04

                                INCREMENT    26


 displacements (vx,vy,vz) for set N1 and time  0.6500000E-06

        23  0.000000E+00  0.000000E+00 -6.967020E-04

                                INCREMENT    27


 displacements (vx,vy,vz) for set N1 and time  0.6750000E-06

        23  0.000000E+00  0.000000E+00 -6.285483E-04

                                INCREMENT    28


 displacements (vx,vy,vz) for set N1 and time  0.7000000E-06

        23  0.000000E+00  0.000000E+00 -5.237701E-04

                                INCREMENT    29


 displacements (vx,vy,vz) for set N1 and time  0.7250000E-06

        23  0.000000E+00  0.000000E+00 -3.964719E-04

                                INCREMENT    30


 displacements (vx,vy,vz) for set N1 and time  0.7500000E-06

        23  0.000000E+00  0.000000E+00 -2.637896E-04

                                INCREMENT    31


 displacements (vx,vy,vz) for set N1 and time  0.7750000E-06

        23  0.000000E+00  0.000000E+00 -1.435841E-04

                                INCREMENT    32


 displacements (vx,vy,vz) for set N1 and time  0.8000000E-06

        23  0.000000E+00  0.000000E+00 -5.203691E-05

                                INCREMENT    33


 displacements (vx,vy,vz) for set N1 and time  0.8250000E-06

        23  0.000000E+00  0.000000E+00 -1.471558E-06

                                INCREMENT    34


 displacements (vx,vy,vz) for set N1 and time  0.8500000E-06

        23  0.000000E+00  0.000000E+00  1.305068E-06

                                INCREMENT    35


 displacements (vx,vy,vz) for set N1 and time  0.8750000E-06

        23  0.000000E+00  0.000000E+00 -4.399523E-05

                                INCREMENT    36


 displacements (vx,vy,vz) for set N1 and time  0.9000000E-06

        23  0.000000E+00  0.000000E+00 -1.312744E-04

                                INCREMENT    37


 displacements (vx,vy,vz) for set N1 and time  0.9250000E-06

        23  0.000000E+00  0.000000E+00 -2.487833E-04

                                INCREMENT    38


 displacements (vx,vy,vz) for set N1 and time  0.9500000E-06

        23  0.000000E+00  0.000000E+00 -3.807038E-04

                                INCREMENT    39


 displacements (vx,vy,vz) for set N1 and time  0.9750000E-06

        23  0.000000E+00  0.000000E+00 -5.092775E-04

                                INCREMENT    40


 displacements (vx,vy,vz) for set N1 and time  0.1000000E-05

        23  0.000000E+00  0.000000E+00 -6.171969E-04

                                INCREMENT    41


 displacements (vx,vy,vz) for set N1 and time  0.1025000E-05

        23  0.000000E+00  0.000000E+00 -6.899349E-04

                                INCREMENT    42


 displacements (vx,vy,vz) for set N1 and time  0.1050000E-05

        23  0.000000E+00  0.000000E+00 -7.177002E-04

                                INCREMENT    43


 displacements (vx,vy,vz) for set N1 and time  0.1075000E-05

        23  0.000000E+00  0.000000E+00 -6.967559E-04

                                INCREMENT    44


 displacements (vx,vy,vz) for set N1 and time  0.1100000E-05

        23  0.000000E+00  0.000000E+00 -6.299207E-04

                                INCREMENT    45


 displacements (vx,vy,vz) for set N1 and time  0.1125000E-05

        23  0.000000E+00  0.000000E+00 -5.261914E-04

                                INCREMENT    46


 displacements (vx,vy,vz) for set N1 and time  0.1150000E-05

        23  0.000000E+00  0.000000E+00 -3.995311E-04

                                INCREMENT    47


 displacements (vx,vy,vz) for set N1 and time  0.1175000E-05

        23  0.000000E+00  0.000000E+00 -2.669899E-04

                                INCREMENT    48


 displacements (vx,vy,vz) for set N1 and time  0.1200000E-05

        23  0.000000E+00  0.000000E+00 -1.464098E-04

                                INCREMENT    49


 displacements (vx,vy,vz) for set N1 and time  0.1225000E-05

        23  0.000000E+00  0.000000E+00 -5.402249E-05

                                INCREMENT    50


 displacements (vx,vy,vz) for set N1 and time  0.1250000E-05

        23  0.000000E+00  0.000000E+00 -2.264770E-06

                                INCREMENT    51


 displacements (vx,vy,vz) for set N1 and time  0.1275000E-05

        23  0.000000E+00  0.000000E+00  1.896000E-06

                                INCREMENT    52


 displacements (vx,vy,vz) for set N1 and time  0.1300000E-05

        23  0.000000E+00  0.000000E+00 -4.202015E-05

                                INCREMENT    53


 displacements (vx,vy,vz) for set N1 and time  0.1325000E-05

        23  0.000000E+00  0.000000E+00 -1.281015E-04

                                INCREMENT    54


 displacements (vx,vy,vz) for set N1 and time  0.1350000E-05

        23  0.000000E+00  0.000000E+00 -2.447602E-04

                                INCREMENT    55


 displacements (vx,vy,vz) for set N1 and time  0.1375000E-05

        23  0.000000E+00  0.000000E+00 -3.762924E-04

                                INCREMENT    56


 displacements (vx,vy,vz) for set N1 and time  0.1400000E-05

        23  0.000000E+00  0.000000E+00 -5.049922E-04

                                INCREMENT    57


 displacements (vx,vy,vz) for set N1 and time  0.1425000E-05

        23  0.000000E+00  0.000000E+00 -6.135350E-04

                                INCREMENT    58


 displacements (vx,vy,vz) for set N1 and time  0.1450000E-05

        23  0.000000E+00  0.000000E+00 -6.873097E-04

                                INCREMENT    59


 displacements (vx,vy,vz) for set N1 and time  0.1475000E-05

        23  0.000000E+00  0.000000E+00 -7.163857E-04

                                INCREMENT    60


 displacements (vx,vy,vz) for set N1 and time  0.1500000E-05

        23  0.000000E+00  0.000000E+00 -6.968493E-04

                                INCREMENT    61


 displacements (vx,vy,vz) for set N1 and time  0.1525000E-05

        23  0.000000E+00  0.000000E+00 -6.313299E-04

                                INCREMENT    62


 displacements (vx,vy,vz) for set N1 and time  0.1550000E-05

        23  0.000000E+00  0.000000E+00 -5.286470E-04

                                INCREMENT    63


 displacements (vx,vy,vz) for set N1 and time  0.1575000E-05

        23  0.000000E+00  0.000000E+00 -4.026229E-04

                                INCREMENT    64


 displacements (vx,vy,vz) for set N1 and time  0.1600000E-05

        23  0.000000E+00  0.000000E+00 -2.702222E-04

                                INCREMENT    65


 displacements (vx,vy,vz) for set N1 and time  0.1625000E-05

        23  0.000000E+00  0.000000E+00 -1.492677E-04

                                INCREMENT    66


 displacements (vx,vy,vz) for set N1 and time  0.1650000E-05

        23  0.000000E+00  0.000000E+00 -5.604167E-05

                                INCREMENT    67


 displacements (vx,vy,vz) for set N1 and time  0.1675000E-05

        23  0.000000E+00  0.000000E+00 -3.093802E-06

                                INCREMENT    68


 displacements (vx,vy,vz) for set N1 and time  0.1700000E-05

        23  0.000000E+00  0.000000E+00  2.448349E-06

                                INCREMENT    69


 displacements (vx,vy,vz) for set N1 and time  0.1725000E-05

        23  0.000000E+00  0.000000E+00 -4.008642E-05

                                INCREMENT    70


 displacements (vx,vy,vz) for set N1 and time  0.1750000E-05

        23  0.000000E+00  0.000000E+00 -1.249723E-04

                                INCREMENT    71


 displacements (vx,vy,vz) for set N1 and time  0.1775000E-05

        23  0.000000E+00  0.000000E+00 -2.407825E-04

                                INCREMENT    72


 displacements (vx,vy,vz) for set N1 and time  0.1800000E-05

        23  0.000000E+00  0.000000E+00 -3.719273E-04

                                INCREMENT    73


 displacements (vx,vy,vz) for set N1 and time  0.1825000E-05

        23  0.000000E+00  0.000000E+00 -5.007528E-04

                                INCREMENT    74


 displacements (vx,vy,vz) for set N1 and time  0.1850000E-05

        23  0.000000E+00  0.000000E+00 -6.099177E-04

                                INCREMENT    75


 displacements (vx,vy,vz) for set N1 and time  0.1875000E-05

        23  0.000000E+00  0.000000E+00 -6.847271E-04

                                INCREMENT    76


 displacements (vx,vy,vz) for set N1 and time  0.1900000E-05

        23  0.000000E+00  0.000000E+00 -7.151109E-04

                                INCREMENT    77


 displacements (vx,vy,vz) for set N1 and time  0.1925000E-05

        23  0.000000E+00  0.000000E+00 -6.969796E-04

                                INCREMENT    78


 displacements (vx,vy,vz) for set N1 and time  0.1950000E-05

        23  0.000000E+00  0.000000E+00 -6.327735E-04

                                INCREMENT    79


 displacements (vx,vy,vz) for set N1 and time  0.1975000E-05

        23  0.000000E+00  0.000000E+00 -5.311352E-04

                                INCREMENT    80


 displacements (vx,vy,vz) for set N1 and time  0.2000000E-05

        23  0.000000E+00  0.000000E+00 -4.057463E-04

                                INCREMENT    81


 displacements (vx,vy,vz) for set N1 and time  0.2025000E-05

        23  0.000000E+00  0.000000E+00 -2.734859E-04

                                INCREMENT    82


 displacements (vx,vy,vz) for set N1 and time  0.2050000E-05

        23  0.000000E+00  0.000000E+00 -1.521580E-04

                                INCREMENT    83


 displacements (vx,vy,vz) for set N1 and time  0.2075000E-05

        23  0.000000E+00  0.000000E+00 -5.809519E-05

                                INCREMENT    84


 displacements (vx,vy,vz) for set N1 and time  0.2100000E-05

        23  0.000000E+00  0.000000E+00 -3.959669E-06

                                INCREMENT    85


 displacements (vx,vy,vz) for set N1 and time  0.2125000E-05

        23  0.000000E+00  0.000000E+00  2.961083E-06

                                INCREMENT    86


 displacements (vx,vy,vz) for set N1 and time  0.2150000E-05

        23  0.000000E+00  0.000000E+00 -3.819509E-05

                                INCREMENT    87


 displacements (vx,vy,vz) for set N1 and time  0.2175000E-05

        23  0.000000E+00  0.000000E+00 -1.218880E-04

                                INCREMENT    88


 displacements (vx,vy,vz) for set N1 and time  0.2200000E-05

        23  0.000000E+00  0.000000E+00 -2.368513E-04

                                INCREMENT    89


 displacements (vx,vy,vz) for set N1 and time  0.2225000E-05

        23  0.000000E+00  0.000000E+00 -3.676094E-04

                                INCREMENT    90


 displacements (vx,vy,vz) for set N1 and time  0.2250000E-05

        23  0.000000E+00  0.000000E+00 -4.965604E-04

                                INCREMENT    91


 displacements (vx,vy,vz) for set N1 and time  0.2275000E-05

        23  0.000000E+00  0.000000E+00 -6.063461E-04

                                INCREMENT    92


 displacements (vx,vy,vz) for set N1 and time  0.2300000E-05

        23  0.000000E+00  0.000000E+00 -6.821878E-04

                                INCREMENT    93


 displacements (vx,vy,vz) for set N1 and time  0.2325000E-05

        23  0.000000E+00  0.000000E+00 -7.138768E-04

                                INCREMENT    94


 displacements (vx,vy,vz) for set N1 and time  0.2350000E-05

        23  0.000000E+00  0.000000E+00 -6.971478E-04

                                INCREMENT    95


 displacements (vx,vy,vz) for set N1 and time  0.2375000E-05

        23  0.000000E+00  0.000000E+00 -6.342521E-04

                                INCREMENT    96


 displacements (vx,vy,vz) for set N1 and time  0.2400000E-05

        23  0.000000E+00  0.000000E+00 -5.336560E-04

                                INCREMENT    97


 displacements (vx,vy,vz) for set N1 and time  0.2425000E-05

        23  0.000000E+00  0.000000E+00 -4.089009E-04

                                INCREMENT    98


 displacements (vx,vy,vz) for set N1 and time  0.2450000E-05

        23  0.000000E+00  0.000000E+00 -2.767805E-04

                                INCREMENT    99


 displacements (vx,vy,vz) for set N1 and time  0.2475000E-05

        23  0.000000E+00  0.000000E+00 -1.550799E-04

                                INCREMENT   100


 displacements (vx,vy,vz) for set N1 and time  0.2500000E-05

        23  0.000000E+00  0.000000E+00 -6.018177E-05

                                INCREMENT   101


 displacements (vx,vy,vz) for set N1 and time  0.2525000E-05

        23  0.000000E+00  0.000000E+00 -4.860890E-06

                                INCREMENT   102


 displacements (vx,vy,vz) for set N1 and time  0.2550000E-05

        23  0.000000E+00  0.000000E+00  3.435735E-06

                                INCREMENT   103


 displacements (vx,vy,vz) for set N1 and time  0.2575000E-05

        23  0.000000E+00  0.000000E+00 -3.634456E-05

                                INCREMENT   104


 displacements (vx,vy,vz) for set N1 and time  0.2600000E-05

        23  0.000000E+00  0.000000E+00 -1.188468E-04

                                INCREMENT   105


 displacements (vx,vy,vz) for set N1 and time  0.2625000E-05

        23  0.000000E+00  0.000000E+00 -2.329649E-04

                                INCREMENT   106


 displacements (vx,vy,vz) for set N1 and time  0.2650000E-05

        23  0.000000E+00  0.000000E+00 -3.633371E-04

                                INCREMENT   107


 displacements (vx,vy,vz) for set N1 and time  0.2675000E-05

        23  0.000000E+00  0.000000E+00 -4.924135E-04

                                INCREMENT   108


 displacements (vx,vy,vz) for set N1 and time  0.2700000E-05

        23  0.000000E+00  0.000000E+00 -6.028187E-04

                                INCREMENT   109


 displacements (vx,vy,vz) for set N1 and time  0.2725000E-05

        23  0.000000E+00  0.000000E+00 -6.796911E-04

                                INCREMENT   110


 displacements (vx,vy,vz) for set N1 and time  0.2750000E-05

        23  0.000000E+00  0.000000E+00 -7.126829E-04

                                INCREMENT   111


 displacements (vx,vy,vz) for set N1 and time  0.2775000E-05

        23  0.000000E+00  0.000000E+00 -6.973535E-04

                                INCREMENT   112


 displacements (vx,vy,vz) for set N1 and time  0.2800000E-05

        23  0.000000E+00  0.000000E+00 -6.357659E-04

                                INCREMENT   113


 displacements (vx,vy,vz) for set N1 and time  0.2825000E-05

        23  0.000000E+00  0.000000E+00 -5.362104E-04

                                INCREMENT   114


 displacements (vx,vy,vz) for set N1 and time  0.2850000E-05

        23  0.000000E+00  0.000000E+00 -4.120882E-04

                                INCREMENT   115


 displacements (vx,vy,vz) for set N1 and time  0.2875000E-05

        23  0.000000E+00  0.000000E+00 -2.801076E-04

                                INCREMENT   116


 displacements (vx,vy,vz) for set N1 and time  0.2900000E-05

        23  0.000000E+00  0.000000E+00 -1.580353E-04

                                INCREMENT   117


 displacements (vx,vy,vz) for set N1 and time  0.2925000E-05

        23  0.000000E+00  0.000000E+00 -6.230366E-05

                                INCREMENT   118


 displacements (vx,vy,vz) for set N1 and time  0.2950000E-05

        23  0.000000E+00  0.000000E+00 -5.799772E-06

                                INCREMENT   119


 displacements (vx,vy,vz) for set N1 and time  0.2975000E-05

        23  0.000000E+00  0.000000E+00  3.870134E-06

                                INCREMENT   120


 displacements (vx,vy,vz) for set N1 and time  0.3000000E-05

        23  0.000000E+00  0.000000E+00 -3.453688E-05

                                INCREMENT   121


 displacements (vx,vy,vz) for set N1 and time  0.3025000E-05

        23  0.000000E+00  0.000000E+00 -1.158507E-04

                                INCREMENT   122


 displacements (vx,vy,vz) for set N1 and time  0.3050000E-05

        23  0.000000E+00  0.000000E+00 -2.291253E-04

                                INCREMENT   123


 displacements (vx,vy,vz) for set N1 and time  0.3075000E-05

        23  0.000000E+00  0.000000E+00 -3.591123E-04

                                INCREMENT   124


 displacements (vx,vy,vz) for set N1 and time  0.3100000E-05

        23  0.000000E+00  0.000000E+00 -4.883137E-04

                                INCREMENT   125


 displacements (vx,vy,vz) for set N1 and time  0.3125000E-05

        23  0.000000E+00  0.000000E+00 -5.993375E-04

                                INCREMENT   126


 displacements (vx,vy,vz) for set N1 and time  0.3150000E-05

        23  0.000000E+00  0.000000E+00 -6.772385E-04

                                INCREMENT   127


 displacements (vx,vy,vz) for set N1 and time  0.3175000E-05

        23  0.000000E+00  0.000000E+00 -7.115306E-04

                                INCREMENT   128


 displacements (vx,vy,vz) for set N1 and time  0.3200000E-05

        23  0.000000E+00  0.000000E+00 -6.975981E-04

                                INCREMENT   129


 displacements (vx,vy,vz) for set N1 and time  0.3225000E-05

        23  0.000000E+00  0.000000E+00 -6.373160E-04

                                INCREMENT   130


 displacements (vx,vy,vz) for set N1 and time  0.3250000E-05

        23  0.000000E+00  0.000000E+00 -5.387987E-04

                                INCREMENT   131


 displacements (vx,vy,vz) for set N1 and time  0.3275000E-05

        23  0.000000E+00  0.000000E+00 -4.153077E-04

                                INCREMENT   132


 displacements (vx,vy,vz) for set N1 and time  0.3300000E-05

        23  0.000000E+00  0.000000E+00 -2.834665E-04

                                INCREMENT   133


 displacements (vx,vy,vz) for set N1 and time  0.3325000E-05

        23  0.000000E+00  0.000000E+00 -1.610227E-04

                                INCREMENT   134


 displacements (vx,vy,vz) for set N1 and time  0.3350000E-05

        23  0.000000E+00  0.000000E+00 -6.445902E-05

                                INCREMENT   135


 displacements (vx,vy,vz) for set N1 and time  0.3375000E-05

        23  0.000000E+00  0.000000E+00 -6.774348E-06

                                INCREMENT   136


 displacements (vx,vy,vz) for set N1 and time  0.3400000E-05

        23  0.000000E+00  0.000000E+00  4.266076E-06

                                INCREMENT   137


 displacements (vx,vy,vz) for set N1 and time  0.3425000E-05

        23  0.000000E+00  0.000000E+00 -3.277042E-05

                                INCREMENT   138


 displacements (vx,vy,vz) for set N1 and time  0.3450000E-05

        23  0.000000E+00  0.000000E+00 -1.128982E-04

                                INCREMENT   139


 displacements (vx,vy,vz) for set N1 and time  0.3475000E-05

        23  0.000000E+00  0.000000E+00 -2.253309E-04

                                INCREMENT   140


 displacements (vx,vy,vz) for set N1 and time  0.3500000E-05

        23  0.000000E+00  0.000000E+00 -3.549335E-04

                                INCREMENT   141


 displacements (vx,vy,vz) for set N1 and time  0.3525000E-05

        23  0.000000E+00  0.000000E+00 -4.842598E-04

                                INCREMENT   142


 displacements (vx,vy,vz) for set N1 and time  0.3550000E-05

        23  0.000000E+00  0.000000E+00 -5.959008E-04

                                INCREMENT   143


 displacements (vx,vy,vz) for set N1 and time  0.3575000E-05

        23  0.000000E+00  0.000000E+00 -6.748283E-04

                                INCREMENT   144


 displacements (vx,vy,vz) for set N1 and time  0.3600000E-05

        23  0.000000E+00  0.000000E+00 -7.104182E-04

                                INCREMENT   145


 displacements (vx,vy,vz) for set N1 and time  0.3625000E-05

        23  0.000000E+00  0.000000E+00 -6.978799E-04

                                INCREMENT   146


 displacements (vx,vy,vz) for set N1 and time  0.3650000E-05

        23  0.000000E+00  0.000000E+00 -6.389007E-04

                                INCREMENT   147


 displacements (vx,vy,vz) for set N1 and time  0.3675000E-05

        23  0.000000E+00  0.000000E+00 -5.414197E-04

                                INCREMENT   148


 displacements (vx,vy,vz) for set N1 and time  0.3700000E-05

        23  0.000000E+00  0.000000E+00 -4.185590E-04

                                INCREMENT   149


 displacements (vx,vy,vz) for set N1 and time  0.3725000E-05

        23  0.000000E+00  0.000000E+00 -2.868570E-04

                                INCREMENT   150


 displacements (vx,vy,vz) for set N1 and time  0.3750000E-05

        23  0.000000E+00  0.000000E+00 -1.640428E-04

                                INCREMENT   151


 displacements (vx,vy,vz) for set N1 and time  0.3775000E-05

        23  0.000000E+00  0.000000E+00 -6.664883E-05

                                INCREMENT   152


 displacements (vx,vy,vz) for set N1 and time  0.3800000E-05

        23  0.000000E+00  0.000000E+00 -7.785801E-06

                                INCREMENT   153


 displacements (vx,vy,vz) for set N1 and time  0.3825000E-05

        23  0.000000E+00  0.000000E+00  4.622435E-06

                                INCREMENT   154


 displacements (vx,vy,vz) for set N1 and time  0.3850000E-05

        23  0.000000E+00  0.000000E+00 -3.104625E-05

                                INCREMENT   155


 displacements (vx,vy,vz) for set N1 and time  0.3875000E-05

        23  0.000000E+00  0.000000E+00 -1.099903E-04

                                INCREMENT   156


 displacements (vx,vy,vz) for set N1 and time  0.3900000E-05

        23  0.000000E+00  0.000000E+00 -2.215828E-04

                                INCREMENT   157


 displacements (vx,vy,vz) for set N1 and time  0.3925000E-05

        23  0.000000E+00  0.000000E+00 -3.508018E-04

                                INCREMENT   158


 displacements (vx,vy,vz) for set N1 and time  0.3950000E-05

        23  0.000000E+00  0.000000E+00 -4.802526E-04

                                INCREMENT   159


 displacements (vx,vy,vz) for set N1 and time  0.3975000E-05

        23  0.000000E+00  0.000000E+00 -5.925096E-04

                                INCREMENT   160


 displacements (vx,vy,vz) for set N1 and time  0.4000000E-05

        23  0.000000E+00  0.000000E+00 -6.724617E-04

                                INCREMENT   161


 displacements (vx,vy,vz) for set N1 and time  0.4025000E-05

        23  0.000000E+00  0.000000E+00 -7.093467E-04

                                INCREMENT   162


 displacements (vx,vy,vz) for set N1 and time  0.4050000E-05

        23  0.000000E+00  0.000000E+00 -6.981999E-04

                                INCREMENT   163


 displacements (vx,vy,vz) for set N1 and time  0.4075000E-05

        23  0.000000E+00  0.000000E+00 -6.405211E-04

                                INCREMENT   164


 displacements (vx,vy,vz) for set N1 and time  0.4100000E-05

        23  0.000000E+00  0.000000E+00 -5.440744E-04

                                INCREMENT   165


 displacements (vx,vy,vz) for set N1 and time  0.4125000E-05

        23  0.000000E+00  0.000000E+00 -4.218426E-04

                                INCREMENT   166


 displacements (vx,vy,vz) for set N1 and time  0.4150000E-05

        23  0.000000E+00  0.000000E+00 -2.902797E-04

                                INCREMENT   167


 displacements (vx,vy,vz) for set N1 and time  0.4175000E-05

        23  0.000000E+00  0.000000E+00 -1.670958E-04

                                INCREMENT   168


 displacements (vx,vy,vz) for set N1 and time  0.4200000E-05

        23  0.000000E+00  0.000000E+00 -6.887319E-05

                                INCREMENT   169


 displacements (vx,vy,vz) for set N1 and time  0.4225000E-05

        23  0.000000E+00  0.000000E+00 -8.834146E-06

                                INCREMENT   170


 displacements (vx,vy,vz) for set N1 and time  0.4250000E-05

        23  0.000000E+00  0.000000E+00  4.939181E-06

                                INCREMENT   171


 displacements (vx,vy,vz) for set N1 and time  0.4275000E-05

        23  0.000000E+00  0.000000E+00 -2.936442E-05

                                INCREMENT   172


 displacements (vx,vy,vz) for set N1 and time  0.4300000E-05

        23  0.000000E+00  0.000000E+00 -1.071272E-04

                                INCREMENT   173


 displacements (vx,vy,vz) for set N1 and time  0.4325000E-05

        23  0.000000E+00  0.000000E+00 -2.178811E-04

                                INCREMENT   174


 displacements (vx,vy,vz) for set N1 and time  0.4350000E-05

        23  0.000000E+00  0.000000E+00 -3.467172E-04

                                INCREMENT   175


 displacements (vx,vy,vz) for set N1 and time  0.4375000E-05

        23  0.000000E+00  0.000000E+00 -4.762924E-04

                                INCREMENT   176


 displacements (vx,vy,vz) for set N1 and time  0.4400000E-05

        23  0.000000E+00  0.000000E+00 -5.891642E-04

                                INCREMENT   177


 displacements (vx,vy,vz) for set N1 and time  0.4425000E-05

        23  0.000000E+00  0.000000E+00 -6.701387E-04

                                INCREMENT   178


 displacements (vx,vy,vz) for set N1 and time  0.4450000E-05

        23  0.000000E+00  0.000000E+00 -7.083161E-04

                                INCREMENT   179


 displacements (vx,vy,vz) for set N1 and time  0.4475000E-05

        23  0.000000E+00  0.000000E+00 -6.985576E-04

                                INCREMENT   180


 displacements (vx,vy,vz) for set N1 and time  0.4500000E-05

        23  0.000000E+00  0.000000E+00 -6.421763E-04

                                INCREMENT   181

