    1C
    1UUnit system: MM_TON_S_C                                           
    1UUSER                                                              
    1UDATE              14.november.2023                                
    1UTIME              19:11:30                                        
    1UHOST                                                              
    1UPGM               CalculiX                                        
    1UVERSION           Version DEVELOPMENT                             
    1UCOMPILETIME       Sat Nov 11 16:56:11 CET 2023                    
    1UDIR                                                               
    1UDBN                                                               
    1UMAT    1S235                                                      
    1UMAT    2SURFACE_INTERACTION-1                                     
    2C                            26                                     1
 -1        27 0.00000E+00 0.00000E+00 0.00000E+00
 -1        28 0.00000E+00 0.00000E+00 1.00000E+01
 -1        29 0.00000E+00 1.00000E+01 0.00000E+00
 -1        30 0.00000E+00 1.00000E+01 1.00000E+01
 -1        31 1.00000E+01 0.00000E+00 0.00000E+00
 -1        32 1.00000E+01 0.00000E+00 1.00000E+01
 -1        33 1.00000E+01 1.00000E+01 0.00000E+00
 -1        34 1.00000E+01 1.00000E+01 1.00000E+01
 -1        35 0.00000E+00 0.00000E+00 5.00000E+00
 -1        36 0.00000E+00 5.00000E+00 1.00000E+01
 -1        37 0.00000E+00 5.00000E+00 5.00000E+00
 -1        38 0.00000E+00 5.00000E+00 0.00000E+00
 -1        39 0.00000E+00 1.00000E+01 5.00000E+00
 -1        40 1.00000E+01 0.00000E+00 5.00000E+00
 -1        41 1.00000E+01 5.00000E+00 0.00000E+00
 -1        42 1.00000E+01 5.00000E+00 5.00000E+00
 -1        43 1.00000E+01 1.00000E+01 5.00000E+00
 -1        44 1.00000E+01 5.00000E+00 1.00000E+01
 -1        45 5.00000E+00 0.00000E+00 0.00000E+00
 -1        46 5.00000E+00 0.00000E+00 5.00000E+00
 -1        47 5.00000E+00 0.00000E+00 1.00000E+01
 -1        48 5.00000E+00 1.00000E+01 0.00000E+00
 -1        49 5.00000E+00 1.00000E+01 5.00000E+00
 -1        50 5.00000E+00 1.00000E+01 1.00000E+01
 -1        51 5.00000E+00 5.00000E+00 0.00000E+00
 -1        52 5.00000E+00 5.00000E+00 1.00000E+01
 -3
    3C                             5                                     1
 -1         6    6    0    1
 -2        30        32        33        34        52        42        49        50        44        43
 -1         7    6    0    1
 -2        32        30        33        27        52        49        42        46        37        51
 -1         8    6    0    1
 -2        33        27        30        29        51        37        49        48        38        39
 -1         9    6    0    1
 -2        33        27        31        32        51        45        41        42        46        40
 -1        10    6    0    1
 -2        28        27        30        32        35        37        36        47        46        52
 -3
    1PSTEP                         1           1           1          
  100CL  101 1.000000000          26                     0    1           1
 -4  DISP        4    1
 -5  D1          1    2    1    0
 -5  D2          1    2    2    0
 -5  D3          1    2    3    0
 -5  ALL         1    2    0    0    1ALL
 -1        27 0.00000E+00 0.00000E+00 0.00000E+00
 -1        28-4.87553E-10-4.87553E-10-1.54256E-08
 -1        29 0.00000E+00 0.00000E+00 0.00000E+00
 -1        30-4.05437E-10 4.05437E-10-1.65137E-08
 -1        31 0.00000E+00 0.00000E+00 0.00000E+00
 -1        32 4.05437E-10-4.05437E-10-1.65137E-08
 -1        33 0.00000E+00 0.00000E+00 0.00000E+00
 -1        34 4.87553E-10 4.87553E-10-1.54256E-08
 -1        35-1.97705E-09-1.97705E-09-1.22194E-08
 -1        36-4.44863E-10-2.05610E-10-1.61704E-08
 -1        37-2.11978E-09 1.10975E-10-1.17090E-08
 -1        38 0.00000E+00 0.00000E+00 0.00000E+00
 -1        39-2.78142E-09 2.78142E-09-1.10863E-08
 -1        40 2.78142E-09-2.78142E-09-1.10863E-08
 -1        41 0.00000E+00 0.00000E+00 0.00000E+00
 -1        42 2.11978E-09-1.10975E-10-1.17090E-08
 -1        43 1.97705E-09 1.97705E-09-1.22194E-08
 -1        44 4.44863E-10 2.05610E-10-1.61704E-08
 -1        45 0.00000E+00 0.00000E+00 0.00000E+00
 -1        46 1.10975E-10-2.11978E-09-1.17090E-08
 -1        47-2.05610E-10-4.44863E-10-1.61704E-08
 -1        48 0.00000E+00 0.00000E+00 0.00000E+00
 -1        49-1.10975E-10 2.11978E-09-1.17090E-08
 -1        50 2.05610E-10 4.44863E-10-1.61704E-08
 -1        51 0.00000E+00 0.00000E+00 0.00000E+00
 -1        52 2.87940E-23 2.63177E-23-1.77565E-08
 -3
    1PSTEP                         2           1           1          
  100CL  101 1.000000000          26                     0    1           1
 -4  STRESS      6    1
 -5  SXX         1    4    1    1
 -5  SYY         1    4    2    2
 -5  SZZ         1    4    3    3
 -5  SXY         1    4    1    2
 -5  SYZ         1    4    2    3
 -5  SZX         1    4    3    1
 -1        27-2.17403E-04-2.17403E-04-7.74944E-04-1.93146E-05-3.35182E-05-3.35182E-05
 -1        28 3.59056E-05 3.59056E-05 7.47220E-05 1.45433E-06 3.73600E-05 3.73600E-05
 -1        29-2.90569E-04-2.90569E-04-7.47175E-04 1.18369E-10 8.79394E-05-8.79394E-05
 -1        30 1.23785E-04 1.23785E-04-1.06149E-05 7.30698E-06-2.37438E-05 2.37438E-05
 -1        31-2.90569E-04-2.90569E-04-7.47175E-04 1.18369E-10-8.79394E-05 8.79394E-05
 -1        32 1.23785E-04 1.23785E-04-1.06149E-05 7.30698E-06 2.37438E-05-2.37438E-05
 -1        33-2.17403E-04-2.17403E-04-7.74944E-04-1.93146E-05 3.35182E-05 3.35182E-05
 -1        34 3.59056E-05 3.59056E-05 7.47220E-05 1.45433E-06-3.73600E-05-3.73600E-05
 -1        35-1.76079E-05-1.76079E-05-3.33797E-04-4.62963E-06 1.07901E-06 1.07901E-06
 -1        36 2.53169E-05 3.07698E-05 1.76030E-05 4.07367E-06 1.43175E-05 2.66000E-05
 -1        37-1.39216E-05-1.21039E-05-3.81445E-04-9.12058E-06-2.44965E-05-8.02298E-06
 -1        38-3.03572E-04-3.03572E-04-7.80613E-04 1.18369E-10 4.41273E-05-7.70843E-05
 -1        39 2.67391E-05 2.67391E-05-3.31808E-04-2.17101E-05 1.35427E-05-1.35427E-05
 -1        40 2.67391E-05 2.67391E-05-3.31808E-04-2.17101E-05-1.35427E-05 1.35427E-05
 -1        41-3.03572E-04-3.03572E-04-7.80613E-04 1.18369E-10-4.41273E-05 7.70843E-05
 -1        42-1.39216E-05-1.21039E-05-3.81445E-04-9.12058E-06 2.44965E-05 8.02298E-06
 -1        43-1.76079E-05-1.76079E-05-3.33797E-04-4.62963E-06-1.07901E-06-1.07901E-06
 -1        44 2.53169E-05 3.07698E-05 1.76030E-05 4.07367E-06-1.43175E-05-2.66000E-05
 -1        45-3.03572E-04-3.03572E-04-7.80613E-04 1.18369E-10-7.70843E-05 4.41273E-05
 -1        46-1.21039E-05-1.39216E-05-3.81445E-04-9.12058E-06-8.02298E-06-2.44965E-05
 -1        47 3.07698E-05 2.53169E-05 1.76030E-05 4.07367E-06 2.66000E-05 1.43175E-05
 -1        48-3.03572E-04-3.03572E-04-7.80613E-04 1.18369E-10 7.70843E-05-4.41273E-05
 -1        49-1.21039E-05-1.39216E-05-3.81445E-04-9.12058E-06 8.02298E-06 2.44965E-05
 -1        50 3.07698E-05 2.53169E-05 1.76030E-05 4.07367E-06-2.66000E-05-1.43175E-05
 -1        51-2.66164E-04-2.66164E-04-7.85820E-04-2.21816E-05 1.12938E-20 5.42101E-20
 -1        52 5.03645E-05 5.03645E-05-4.20064E-05 2.42161E-05-1.60936E-20-1.16326E-19
 -3
 9999
