    1C
    1UUSER                                                              
    1UDATE              19.october.2022                                 
    1UTIME              21:00:01                                        
    1UHOST                                                              
    1UPGM               CalculiX                                        
    1UVERSION           Version DEVELOPMENT                             
    1UCOMPILETIME       Wed Oct 19 20:52:12 CEST 2022                    
    1UDIR                                                               
    1UDBN                                                               
    1UMAT    1EL                                                        
    1UMAT    2SI1                                                       
    2C                            16                                     1
 -1         1 1.00000E+00 1.00000E+00 0.00000E+00
 -1         2 1.00000E+00 0.00000E+00 0.00000E+00
 -1         3 1.00000E+00 0.00000E+00 1.00000E+00
 -1         4 1.00000E+00 1.00000E+00 1.00000E+00
 -1         5 0.00000E+00 1.00000E+00 0.00000E+00
 -1         6 0.00000E+00 0.00000E+00 0.00000E+00
 -1         7 0.00000E+00 0.00000E+00 1.00000E+00
 -1         8 0.00000E+00 1.00000E+00 1.00000E+00
 -1        21 7.50000E-01 7.50000E-01 1.00000E+00
 -1        22 7.50000E-01 2.50000E-01 1.00000E+00
 -1        23 7.50000E-01 2.50000E-01 1.50000E+00
 -1        24 7.50000E-01 7.50000E-01 1.50000E+00
 -1        25 2.50000E-01 7.50000E-01 1.00000E+00
 -1        26 2.50000E-01 2.50000E-01 1.00000E+00
 -1        27 2.50000E-01 2.50000E-01 1.50000E+00
 -1        28 2.50000E-01 7.50000E-01 1.50000E+00
 -3
    3C                             2                                     1
 -1         1    1    0    1
 -2         1         2         3         4         5         6         7         8
 -1         2    1    0    1
 -2        21        22        23        24        25        26        27        28
 -3
    1PSTEP                         1           1           1          
  100CL  101 2.50000E-08           1                     1    1           1
 -4  ENER        1    1
 -5  ENER        1    1    0    0
 -1        23 9.70745E-04
 -3
    1PSTEP                         2           2           1          
  100CL  102 5.00000E-08           1                     1    2           1
 -4  ENER        1    1
 -5  ENER        1    1    0    0
 -1        23 6.22371E-03
 -3
    1PSTEP                         3           3           1          
  100CL  103 7.50000E-08           1                     1    3           1
 -4  ENER        1    1
 -5  ENER        1    1    0    0
 -1        23 1.87075E-02
 -3
    1PSTEP                         4           4           1          
  100CL  104 1.00000E-07           1                     1    4           1
 -4  ENER        1    1
 -5  ENER        1    1    0    0
 -1        23 3.88166E-02
 -3
    1PSTEP                         5           5           1          
  100CL  105 1.25000E-07           1                     1    5           1
 -4  ENER        1    1
 -5  ENER        1    1    0    0
 -1        23 6.32584E-02
 -3
    1PSTEP                         6           6           1          
  100CL  106 1.50000E-07           1                     1    6           1
 -4  ENER        1    1
 -5  ENER        1    1    0    0
 -1        23 8.58015E-02
 -3
    1PSTEP                         7           7           1          
  100CL  107 1.75000E-07           1                     1    7           1
 -4  ENER        1    1
 -5  ENER        1    1    0    0
 -1        23 9.96448E-02
 -3
    1PSTEP                         8           8           1          
  100CL  108 2.00000E-07           1                     1    8           1
 -4  ENER        1    1
 -5  ENER        1    1    0    0
 -1        23 1.00293E-01
 -3
    1PSTEP                         9           9           1          
  100CL  109 2.25000E-07           1                     1    9           1
 -4  ENER        1    1
 -5  ENER        1    1    0    0
 -1        23 8.75302E-02
 -3
    1PSTEP                        10          10           1          
  100CL  110 2.50000E-07           1                     1   10           1
 -4  ENER        1    1
 -5  ENER        1    1    0    0
 -1        23 6.55193E-02
 -3
    1PSTEP                        11          11           1          
  100CL  111 2.75000E-07           1                     1   11           1
 -4  ENER        1    1
 -5  ENER        1    1    0    0
 -1        23 4.09630E-02
 -3
    1PSTEP                        12          12           1          
  100CL  112 3.00000E-07           1                     1   12           1
 -4  ENER        1    1
 -5  ENER        1    1    0    0
 -1        23 2.02619E-02
 -3
    1PSTEP                        13          13           1          
  100CL  113 3.25000E-07           1                     1   13           1
 -4  ENER        1    1
 -5  ENER        1    1    0    0
 -1        23 7.03996E-03
 -3
    1PSTEP                        14          14           1          
  100CL  114 3.50000E-07           1                     1   14           1
 -4  ENER        1    1
 -5  ENER        1    1    0    0
 -1        23 1.22084E-03
 -3
    1PSTEP                        15          15           1          
  100CL  115 3.75000E-07           1                     1   15           1
 -4  ENER        1    1
 -5  ENER        1    1    0    0
 -1        23 4.17784E-06
 -3
    1PSTEP                        16          16           1          
  100CL  116 4.00000E-07           1                     1   16           1
 -4  ENER        1    1
 -5  ENER        1    1    0    0
 -1        23 1.07264E-04
 -3
    1PSTEP                        17          17           1          
  100CL  117 4.25000E-07           1                     1   17           1
 -4  ENER        1    1
 -5  ENER        1    1    0    0
 -1        23 3.50934E-07
 -3
    1PSTEP                        18          18           1          
  100CL  118 4.50000E-07           1                     1   18           1
 -4  ENER        1    1
 -5  ENER        1    1    0    0
 -1        23 9.15436E-04
 -3
    1PSTEP                        19          19           1          
  100CL  119 4.75000E-07           1                     1   19           1
 -4  ENER        1    1
 -5  ENER        1    1    0    0
 -1        23 6.00791E-03
 -3
    1PSTEP                        20          20           1          
  100CL  120 5.00000E-07           1                     1   20           1
 -4  ENER        1    1
 -5  ENER        1    1    0    0
 -1        23 1.82526E-02
 -3
    1PSTEP                        21          21           1          
  100CL  121 5.25000E-07           1                     1   21           1
 -4  ENER        1    1
 -5  ENER        1    1    0    0
 -1        23 3.81334E-02
 -3
    1PSTEP                        22          22           1          
  100CL  122 5.50000E-07           1                     1   22           1
 -4  ENER        1    1
 -5  ENER        1    1    0    0
 -1        23 6.24685E-02
 -3
    1PSTEP                        23          23           1          
  100CL  123 5.75000E-07           1                     1   23           1
 -4  ENER        1    1
 -5  ENER        1    1    0    0
 -1        23 8.51018E-02
 -3
    1PSTEP                        24          24           1          
  100CL  124 6.00000E-07           1                     1   24           1
 -4  ENER        1    1
 -5  ENER        1    1    0    0
 -1        23 9.92301E-02
 -3
    1PSTEP                        25          25           1          
  100CL  125 6.25000E-07           1                     1   25           1
 -4  ENER        1    1
 -5  ENER        1    1    0    0
 -1        23 1.00274E-01
 -3
    1PSTEP                        26          26           1          
  100CL  126 6.50000E-07           1                     1   26           1
 -4  ENER        1    1
 -5  ENER        1    1    0    0
 -1        23 8.78869E-02
 -3
    1PSTEP                        27          27           1          
  100CL  127 6.75000E-07           1                     1   27           1
 -4  ENER        1    1
 -5  ENER        1    1    0    0
 -1        23 6.61108E-02
 -3
    1PSTEP                        28          28           1          
  100CL  128 7.00000E-07           1                     1   28           1
 -4  ENER        1    1
 -5  ENER        1    1    0    0
 -1        23 4.15922E-02
 -3
    1PSTEP                        29          29           1          
  100CL  129 7.25000E-07           1                     1   29           1
 -4  ENER        1    1
 -5  ENER        1    1    0    0
 -1        23 2.07591E-02
 -3
    1PSTEP                        30          30           1          
  100CL  130 7.50000E-07           1                     1   30           1
 -4  ENER        1    1
 -5  ENER        1    1    0    0
 -1        23 7.32630E-03
 -3
    1PSTEP                        31          31           1          
  100CL  131 7.75000E-07           1                     1   31           1
 -4  ENER        1    1
 -5  ENER        1    1    0    0
 -1        23 1.32176E-03
 -3
    1PSTEP                        32          32           1          
  100CL  132 8.00000E-07           1                     1   32           1
 -4  ENER        1    1
 -5  ENER        1    1    0    0
 -1        23 8.97030E-06
 -3
    1PSTEP                        33          33           1          
  100CL  133 8.25000E-07           1                     1   33           1
 -4  ENER        1    1
 -5  ENER        1    1    0    0
 -1        23 9.99642E-05
 -3
    1PSTEP                        34          34           1          
  100CL  134 8.50000E-07           1                     1   34           1
 -4  ENER        1    1
 -5  ENER        1    1    0    0
 -1        23 7.64716E-07
 -3
    1PSTEP                        35          35           1          
  100CL  135 8.75000E-07           1                     1   35           1
 -4  ENER        1    1
 -5  ENER        1    1    0    0
 -1        23 8.61855E-04
 -3
    1PSTEP                        36          36           1          
  100CL  136 9.00000E-07           1                     1   36           1
 -4  ENER        1    1
 -5  ENER        1    1    0    0
 -1        23 5.79634E-03
 -3
    1PSTEP                        37          37           1          
  100CL  137 9.25000E-07           1                     1   37           1
 -4  ENER        1    1
 -5  ENER        1    1    0    0
 -1        23 1.78042E-02
 -3
    1PSTEP                        38          38           1          
  100CL  138 9.50000E-07           1                     1   38           1
 -4  ENER        1    1
 -5  ENER        1    1    0    0
 -1        23 3.74577E-02
 -3
    1PSTEP                        39          39           1          
  100CL  139 9.75000E-07           1                     1   39           1
 -4  ENER        1    1
 -5  ENER        1    1    0    0
 -1        23 6.16852E-02
 -3
    1PSTEP                        40          40           1          
  100CL  140 1.00000E-06           1                     1   40           1
 -4  ENER        1    1
 -5  ENER        1    1    0    0
 -1        23 8.44063E-02
 -3
    1PSTEP                        41          41           1          
  100CL  141 1.02500E-06           1                     1   41           1
 -4  ENER        1    1
 -5  ENER        1    1    0    0
 -1        23 9.88171E-02
 -3
    1PSTEP                        42          42           1          
  100CL  142 1.05000E-06           1                     1   42           1
 -4  ENER        1    1
 -5  ENER        1    1    0    0
 -1        23 1.00255E-01
 -3
    1PSTEP                        43          43           1          
  100CL  143 1.07500E-06           1                     1   43           1
 -4  ENER        1    1
 -5  ENER        1    1    0    0
 -1        23 8.82436E-02
 -3
    1PSTEP                        44          44           1          
  100CL  144 1.10000E-06           1                     1   44           1
 -4  ENER        1    1
 -5  ENER        1    1    0    0
 -1        23 6.67039E-02
 -3
    1PSTEP                        45          45           1          
  100CL  145 1.12500E-06           1                     1   45           1
 -4  ENER        1    1
 -5  ENER        1    1    0    0
 -1        23 4.22250E-02
 -3
    1PSTEP                        46          46           1          
  100CL  146 1.15000E-06           1                     1   46           1
 -4  ENER        1    1
 -5  ENER        1    1    0    0
 -1        23 2.12613E-02
 -3
    1PSTEP                        47          47           1          
  100CL  147 1.17500E-06           1                     1   47           1
 -4  ENER        1    1
 -5  ENER        1    1    0    0
 -1        23 7.61776E-03
 -3
    1PSTEP                        48          48           1          
  100CL  148 1.20000E-06           1                     1   48           1
 -4  ENER        1    1
 -5  ENER        1    1    0    0
 -1        23 1.42647E-03
 -3
    1PSTEP                        49          49           1          
  100CL  149 1.22500E-06           1                     1   49           1
 -4  ENER        1    1
 -5  ENER        1    1    0    0
 -1        23 1.55568E-05
 -3
    1PSTEP                        50          50           1          
  100CL  150 1.25000E-06           1                     1   50           1
 -4  ENER        1    1
 -5  ENER        1    1    0    0
 -1        23 9.29353E-05
 -3
    1PSTEP                        51          51           1          
  100CL  151 1.27500E-06           1                     1   51           1
 -4  ENER        1    1
 -5  ENER        1    1    0    0
 -1        23 1.33633E-06
 -3
    1PSTEP                        52          52           1          
  100CL  152 1.30000E-06           1                     1   52           1
 -4  ENER        1    1
 -5  ENER        1    1    0    0
 -1        23 8.09992E-04
 -3
    1PSTEP                        53          53           1          
  100CL  153 1.32500E-06           1                     1   53           1
 -4  ENER        1    1
 -5  ENER        1    1    0    0
 -1        23 5.58897E-03
 -3
    1PSTEP                        54          54           1          
  100CL  154 1.35000E-06           1                     1   54           1
 -4  ENER        1    1
 -5  ENER        1    1    0    0
 -1        23 1.73622E-02
 -3
    1PSTEP                        55          55           1          
  100CL  155 1.37500E-06           1                     1   55           1
 -4  ENER        1    1
 -5  ENER        1    1    0    0
 -1        23 3.67893E-02
 -3
    1PSTEP                        56          56           1          
  100CL  156 1.40000E-06           1                     1   56           1
 -4  ENER        1    1
 -5  ENER        1    1    0    0
 -1        23 6.09083E-02
 -3
    1PSTEP                        57          57           1          
  100CL  157 1.42500E-06           1                     1   57           1
 -4  ENER        1    1
 -5  ENER        1    1    0    0
 -1        23 8.37150E-02
 -3
    1PSTEP                        58          58           1          
  100CL  158 1.45000E-06           1                     1   58           1
 -4  ENER        1    1
 -5  ENER        1    1    0    0
 -1        23 9.84058E-02
 -3
    1PSTEP                        59          59           1          
  100CL  159 1.47500E-06           1                     1   59           1
 -4  ENER        1    1
 -5  ENER        1    1    0    0
 -1        23 1.00237E-01
 -3
    1PSTEP                        60          60           1          
  100CL  160 1.50000E-06           1                     1   60           1
 -4  ENER        1    1
 -5  ENER        1    1    0    0
 -1        23 8.86004E-02
 -3
    1PSTEP                        61          61           1          
  100CL  161 1.52500E-06           1                     1   61           1
 -4  ENER        1    1
 -5  ENER        1    1    0    0
 -1        23 6.72985E-02
 -3
    1PSTEP                        62          62           1          
  100CL  162 1.55000E-06           1                     1   62           1
 -4  ENER        1    1
 -5  ENER        1    1    0    0
 -1        23 4.28613E-02
 -3
    1PSTEP                        63          63           1          
  100CL  163 1.57500E-06           1                     1   63           1
 -4  ENER        1    1
 -5  ENER        1    1    0    0
 -1        23 2.17684E-02
 -3
    1PSTEP                        64          64           1          
  100CL  164 1.60000E-06           1                     1   64           1
 -4  ENER        1    1
 -5  ENER        1    1    0    0
 -1        23 7.91426E-03
 -3
    1PSTEP                        65          65           1          
  100CL  165 1.62500E-06           1                     1   65           1
 -4  ENER        1    1
 -5  ENER        1    1    0    0
 -1        23 1.53492E-03
 -3
    1PSTEP                        66          66           1          
  100CL  166 1.65000E-06           1                     1   66           1
 -4  ENER        1    1
 -5  ENER        1    1    0    0
 -1        23 2.39216E-05
 -3
    1PSTEP                        67          67           1          
  100CL  167 1.67500E-06           1                     1   67           1
 -4  ENER        1    1
 -5  ENER        1    1    0    0
 -1        23 8.61856E-05
 -3
    1PSTEP                        68          68           1          
  100CL  168 1.70000E-06           1                     1   68           1
 -4  ENER        1    1
 -5  ENER        1    1    0    0
 -1        23 2.06625E-06
 -3
    1PSTEP                        69          69           1          
  100CL  169 1.72500E-06           1                     1   69           1
 -4  ENER        1    1
 -5  ENER        1    1    0    0
 -1        23 7.59836E-04
 -3
    1PSTEP                        70          70           1          
  100CL  170 1.75000E-06           1                     1   70           1
 -4  ENER        1    1
 -5  ENER        1    1    0    0
 -1        23 5.38578E-03
 -3
    1PSTEP                        71          71           1          
  100CL  171 1.77500E-06           1                     1   71           1
 -4  ENER        1    1
 -5  ENER        1    1    0    0
 -1        23 1.69267E-02
 -3
    1PSTEP                        72          72           1          
  100CL  172 1.80000E-06           1                     1   72           1
 -4  ENER        1    1
 -5  ENER        1    1    0    0
 -1        23 3.61283E-02
 -3
    1PSTEP                        73          73           1          
  100CL  173 1.82500E-06           1                     1   73           1
 -4  ENER        1    1
 -5  ENER        1    1    0    0
 -1        23 6.01380E-02
 -3
    1PSTEP                        74          74           1          
  100CL  174 1.85000E-06           1                     1   74           1
 -4  ENER        1    1
 -5  ENER        1    1    0    0
 -1        23 8.30280E-02
 -3
    1PSTEP                        75          75           1          
  100CL  175 1.87500E-06           1                     1   75           1
 -4  ENER        1    1
 -5  ENER        1    1    0    0
 -1        23 9.79962E-02
 -3
    1PSTEP                        76          76           1          
  100CL  176 1.90000E-06           1                     1   76           1
 -4  ENER        1    1
 -5  ENER        1    1    0    0
 -1        23 1.00218E-01
 -3
    1PSTEP                        77          77           1          
  100CL  177 1.92500E-06           1                     1   77           1
 -4  ENER        1    1
 -5  ENER        1    1    0    0
 -1        23 8.89571E-02
 -3
    1PSTEP                        78          78           1          
  100CL  178 1.95000E-06           1                     1   78           1
 -4  ENER        1    1
 -5  ENER        1    1    0    0
 -1        23 6.78944E-02
 -3
    1PSTEP                        79          79           1          
  100CL  179 1.97500E-06           1                     1   79           1
 -4  ENER        1    1
 -5  ENER        1    1    0    0
 -1        23 4.35011E-02
 -3
    1PSTEP                        80          80           1          
  100CL  180 2.00000E-06           1                     1   80           1
 -4  ENER        1    1
 -5  ENER        1    1    0    0
 -1        23 2.22805E-02
 -3
    1PSTEP                        81          81           1          
  100CL  181 2.02500E-06           1                     1   81           1
 -4  ENER        1    1
 -5  ENER        1    1    0    0
 -1        23 8.21584E-03
 -3
    1PSTEP                        82          82           1          
  100CL  182 2.05000E-06           1                     1   82           1
 -4  ENER        1    1
 -5  ENER        1    1    0    0
 -1        23 1.64714E-03
 -3
    1PSTEP                        83          83           1          
  100CL  183 2.07500E-06           1                     1   83           1
 -4  ENER        1    1
 -5  ENER        1    1    0    0
 -1        23 3.40606E-05
 -3
    1PSTEP                        84          84           1          
  100CL  184 2.10000E-06           1                     1   84           1
 -4  ENER        1    1
 -5  ENER        1    1    0    0
 -1        23 7.96976E-05
 -3
    1PSTEP                        85          85           1          
  100CL  185 2.12500E-06           1                     1   85           1
 -4  ENER        1    1
 -5  ENER        1    1    0    0
 -1        23 2.95162E-06
 -3
    1PSTEP                        86          86           1          
  100CL  186 2.15000E-06           1                     1   86           1
 -4  ENER        1    1
 -5  ENER        1    1    0    0
 -1        23 7.11380E-04
 -3
    1PSTEP                        87          87           1          
  100CL  187 2.17500E-06           1                     1   87           1
 -4  ENER        1    1
 -5  ENER        1    1    0    0
 -1        23 5.18676E-03
 -3
    1PSTEP                        88          88           1          
  100CL  188 2.20000E-06           1                     1   88           1
 -4  ENER        1    1
 -5  ENER        1    1    0    0
 -1        23 1.64975E-02
 -3
    1PSTEP                        89          89           1          
  100CL  189 2.22500E-06           1                     1   89           1
 -4  ENER        1    1
 -5  ENER        1    1    0    0
 -1        23 3.54746E-02
 -3
    1PSTEP                        90          90           1          
  100CL  190 2.25000E-06           1                     1   90           1
 -4  ENER        1    1
 -5  ENER        1    1    0    0
 -1        23 5.93741E-02
 -3
    1PSTEP                        91          91           1          
  100CL  191 2.27500E-06           1                     1   91           1
 -4  ENER        1    1
 -5  ENER        1    1    0    0
 -1        23 8.23452E-02
 -3
    1PSTEP                        92          92           1          
  100CL  192 2.30000E-06           1                     1   92           1
 -4  ENER        1    1
 -5  ENER        1    1    0    0
 -1        23 9.75883E-02
 -3
    1PSTEP                        93          93           1          
  100CL  193 2.32500E-06           1                     1   93           1
 -4  ENER        1    1
 -5  ENER        1    1    0    0
 -1        23 1.00199E-01
 -3
    1PSTEP                        94          94           1          
  100CL  194 2.35000E-06           1                     1   94           1
 -4  ENER        1    1
 -5  ENER        1    1    0    0
 -1        23 8.93137E-02
 -3
    1PSTEP                        95          95           1          
  100CL  195 2.37500E-06           1                     1   95           1
 -4  ENER        1    1
 -5  ENER        1    1    0    0
 -1        23 6.84917E-02
 -3
    1PSTEP                        96          96           1          
  100CL  196 2.40000E-06           1                     1   96           1
 -4  ENER        1    1
 -5  ENER        1    1    0    0
 -1        23 4.41442E-02
 -3
    1PSTEP                        97          97           1          
  100CL  197 2.42500E-06           1                     1   97           1
 -4  ENER        1    1
 -5  ENER        1    1    0    0
 -1        23 2.27975E-02
 -3
    1PSTEP                        98          98           1          
  100CL  198 2.45000E-06           1                     1   98           1
 -4  ENER        1    1
 -5  ENER        1    1    0    0
 -1        23 8.52241E-03
 -3
    1PSTEP                        99          99           1          
  100CL  199 2.47500E-06           1                     1   99           1
 -4  ENER        1    1
 -5  ENER        1    1    0    0
 -1        23 1.76307E-03
 -3
    1PSTEP                       100         100           1          
  100CL  200 2.50000E-06           1                     1  100           1
 -4  ENER        1    1
 -5  ENER        1    1    0    0
 -1        23 4.59586E-05
 -3
    1PSTEP                       101         101           1          
  100CL  201 2.52500E-06           1                     1  101           1
 -4  ENER        1    1
 -5  ENER        1    1    0    0
 -1        23 7.34785E-05
 -3
    1PSTEP                       102         102           1          
  100CL  202 2.55000E-06           1                     1  102           1
 -4  ENER        1    1
 -5  ENER        1    1    0    0
 -1        23 3.99290E-06
 -3
    1PSTEP                       103         103           1          
  100CL  203 2.57500E-06           1                     1  103           1
 -4  ENER        1    1
 -5  ENER        1    1    0    0
 -1        23 6.64612E-04
 -3
    1PSTEP                       104         104           1          
  100CL  204 2.60000E-06           1                     1  104           1
 -4  ENER        1    1
 -5  ENER        1    1    0    0
 -1        23 4.99186E-03
 -3
    1PSTEP                       105         105           1          
  100CL  205 2.62500E-06           1                     1  105           1
 -4  ENER        1    1
 -5  ENER        1    1    0    0
 -1        23 1.60747E-02
 -3
    1PSTEP                       106         106           1          
  100CL  206 2.65000E-06           1                     1  106           1
 -4  ENER        1    1
 -5  ENER        1    1    0    0
 -1        23 3.48281E-02
 -3
    1PSTEP                       107         107           1          
  100CL  207 2.67500E-06           1                     1  107           1
 -4  ENER        1    1
 -5  ENER        1    1    0    0
 -1        23 5.86165E-02
 -3
    1PSTEP                       108         108           1          
  100CL  208 2.70000E-06           1                     1  108           1
 -4  ENER        1    1
 -5  ENER        1    1    0    0
 -1        23 8.16665E-02
 -3
    1PSTEP                       109         109           1          
  100CL  209 2.72500E-06           1                     1  109           1
 -4  ENER        1    1
 -5  ENER        1    1    0    0
 -1        23 9.71820E-02
 -3
    1PSTEP                       110         110           1          
  100CL  210 2.75000E-06           1                     1  110           1
 -4  ENER        1    1
 -5  ENER        1    1    0    0
 -1        23 1.00181E-01
 -3
    1PSTEP                       111         111           1          
  100CL  211 2.77500E-06           1                     1  111           1
 -4  ENER        1    1
 -5  ENER        1    1    0    0
 -1        23 8.96704E-02
 -3
    1PSTEP                       112         112           1          
  100CL  212 2.80000E-06           1                     1  112           1
 -4  ENER        1    1
 -5  ENER        1    1    0    0
 -1        23 6.90905E-02
 -3
    1PSTEP                       113         113           1          
  100CL  213 2.82500E-06           1                     1  113           1
 -4  ENER        1    1
 -5  ENER        1    1    0    0
 -1        23 4.47908E-02
 -3
    1PSTEP                       114         114           1          
  100CL  214 2.85000E-06           1                     1  114           1
 -4  ENER        1    1
 -5  ENER        1    1    0    0
 -1        23 2.33194E-02
 -3
    1PSTEP                       115         115           1          
  100CL  215 2.87500E-06           1                     1  115           1
 -4  ENER        1    1
 -5  ENER        1    1    0    0
 -1        23 8.83403E-03
 -3
    1PSTEP                       116         116           1          
  100CL  216 2.90000E-06           1                     1  116           1
 -4  ENER        1    1
 -5  ENER        1    1    0    0
 -1        23 1.88272E-03
 -3
    1PSTEP                       117         117           1          
  100CL  217 2.92500E-06           1                     1  117           1
 -4  ENER        1    1
 -5  ENER        1    1    0    0
 -1        23 5.96134E-05
 -3
    1PSTEP                       118         118           1          
  100CL  218 2.95000E-06           1                     1  118           1
 -4  ENER        1    1
 -5  ENER        1    1    0    0
 -1        23 6.75170E-05
 -3
    1PSTEP                       119         119           1          
  100CL  219 2.97500E-06           1                     1  119           1
 -4  ENER        1    1
 -5  ENER        1    1    0    0
 -1        23 5.18724E-06
 -3