    1C
    1UUSER                                                              
    1UDATE              19.july.2022                                    
    1UTIME              21:26:58                                        
    1UHOST                                                              
    1UPGM               CalculiX                                        
    1UVERSION           Version DEVELOPMENT                             
    1UCOMPILETIME       Tue Jul 19 21:11:38 CEST 2022                    
    1UDIR                                                               
    1UDBN                                                               
    1UMAT    1EL                                                        
    1UMAT    2SI1                                                       
    1UMAT    3SPRING                                                    
    2C                            18                                     1
 -1         1 0.00000E+00 0.00000E+00 0.00000E+00
 -1         2 1.00000E+00 0.00000E+00 0.00000E+00
 -1         3 1.00000E+00-1.00000E-01 1.00000E-01
 -1         4 1.20000E+00-1.00000E-01 1.00000E-01
 -1         5 1.20000E+00-1.00000E-01-1.00000E-01
 -1         6 1.00000E+00-1.00000E-01-1.00000E-01
 -1         7 1.00000E+00 1.00000E-01 1.00000E-01
 -1         8 1.20000E+00 1.00000E-01 1.00000E-01
 -1         9 1.20000E+00 1.00000E-01-1.00000E-01
 -1        10 1.00000E+00 1.00000E-01-1.00000E-01
 -1        11 1.00000E+00-1.00000E-01 1.00000E-01
 -1        12 1.20000E+00-1.00000E-01 1.00000E-01
 -1        13 1.20000E+00-1.00000E-01-1.00000E-01
 -1        14 1.00000E+00-1.00000E-01-1.00000E-01
 -1        15 1.00000E+00 1.00000E-01 1.00000E-01
 -1        16 1.20000E+00 1.00000E-01 1.00000E-01
 -1        17 1.20000E+00 1.00000E-01-1.00000E-01
 -1        18 1.00000E+00 1.00000E-01-1.00000E-01
 -3
    3C                             3                                     1
 -1         1   11    0    3
 -2         1         2
 -1         2    1    0    1
 -2         3         4         5         6         7         8         9        10
 -1         3    1    0    1
 -2        11        12        13        14        15        16        17        18
 -3
    1PSTEP                         1          10           1          
  100CL  101 1.00000E-06          18                     1    1           1
 -4  ENER        1    1
 -5  ENER        1    1    0    0
 -1         1 0.00000E+00
 -1         2 0.00000E+00
 -1         3 2.58600E-29
 -1         4 7.42903E-30
 -1         5 3.65813E-29
 -1         6-4.76092E-30
 -1         7 2.49255E-29
 -1         8 5.47413E-30
 -1         9 1.77824E-29
 -1        10 6.66906E-31
 -1        11 0.00000E+00
 -1        12 0.00000E+00
 -1        13 0.00000E+00
 -1        14 0.00000E+00
 -1        15 0.00000E+00
 -1        16 0.00000E+00
 -1        17 0.00000E+00
 -1        18 0.00000E+00
 -3
    1PSTEP                         2          20           1          
  100CL  102 2.00000E-06          18                     1    2           1
 -4  ENER        1    1
 -5  ENER        1    1    0    0
 -1         1 0.00000E+00
 -1         2 0.00000E+00
 -1         3-4.39231E-28
 -1         4 1.68951E-27
 -1         5-1.14413E-28
 -1         6 2.70401E-29
 -1         7 1.44059E-28
 -1         8-4.87389E-28
 -1         9 2.10755E-28
 -1        10-6.00864E-29
 -1        11 0.00000E+00
 -1        12 0.00000E+00
 -1        13 0.00000E+00
 -1        14 0.00000E+00
 -1        15 0.00000E+00
 -1        16 0.00000E+00
 -1        17 0.00000E+00
 -1        18 0.00000E+00
 -3
    1PSTEP                         3          30           1          
  100CL  103 3.00000E-06          18                     1    3           1
 -4  ENER        1    1
 -5  ENER        1    1    0    0
 -1         1 0.00000E+00
 -1         2 0.00000E+00
 -1         3-1.56725E-27
 -1         4 3.20470E-27
 -1         5-1.48640E-27
 -1         6 3.78917E-27
 -1         7-1.39042E-27
 -1         8 2.54474E-27
 -1         9-1.54873E-27
 -1        10 3.80587E-27
 -1        11 0.00000E+00
 -1        12 0.00000E+00
 -1        13 0.00000E+00
 -1        14 0.00000E+00
 -1        15 0.00000E+00
 -1        16 0.00000E+00
 -1        17 0.00000E+00
 -1        18 0.00000E+00
 -3
    1PSTEP                         4          40           1          
  100CL  104 4.00000E-06          18                     1    4           1
 -4  ENER        1    1
 -5  ENER        1    1    0    0
 -1         1 0.00000E+00
 -1         2 0.00000E+00
 -1         3 9.56472E-28
 -1         4-3.56982E-27
 -1         5 1.55205E-26
 -1         6-4.15869E-27
 -1         7-2.14045E-28
 -1         8 7.98686E-28
 -1         9-3.56982E-27
 -1        10 9.56472E-28
 -1        11 0.00000E+00
 -1        12 0.00000E+00
 -1        13 0.00000E+00
 -1        14 0.00000E+00
 -1        15 0.00000E+00
 -1        16 0.00000E+00
 -1        17 0.00000E+00
 -1        18 0.00000E+00
 -3
    1PSTEP                         5          50           1          
  100CL  105 5.00000E-06          18                     1    5           1
 -4  ENER        1    1
 -5  ENER        1    1    0    0
 -1         1 0.00000E+00
 -1         2 0.00000E+00
 -1         3 5.88588E-28
 -1         4-2.42796E-27
 -1         5 4.50790E-27
 -1         6 2.00972E-27
 -1         7-1.43969E-27
 -1         8 5.14178E-27
 -1         9 1.33631E-27
 -1        10 2.85953E-27
 -1        11 0.00000E+00
 -1        12 0.00000E+00
 -1        13 0.00000E+00
 -1        14 0.00000E+00
 -1        15 0.00000E+00
 -1        16 0.00000E+00
 -1        17 0.00000E+00
 -1        18 0.00000E+00
 -3
    1PSTEP                         6          60           1          
  100CL  106 6.00000E-06          18                     1    6           1
 -4  ENER        1    1
 -5  ENER        1    1    0    0
 -1         1 0.00000E+00
 -1         2 0.00000E+00
 -1         3 8.92340E-28
 -1         4 1.42832E-27
 -1         5-2.09211E-27
 -1         6 2.52152E-27
 -1         7-6.57415E-28
 -1         8 1.61221E-27
 -1         9 6.97468E-27
 -1        10 5.69205E-27
 -1        11 0.00000E+00
 -1        12 0.00000E+00
 -1        13 0.00000E+00
 -1        14 0.00000E+00
 -1        15 0.00000E+00
 -1        16 0.00000E+00
 -1        17 0.00000E+00
 -1        18 0.00000E+00
 -3
    1PSTEP                         7          70           1          
  100CL  107 7.00000E-06          18                     1    7           1
 -4  ENER        1    1
 -5  ENER        1    1    0    0
 -1         1 0.00000E+00
 -1         2 0.00000E+00
 -1         3 1.27573E-27
 -1         4-2.67929E-30
 -1         5 4.54968E-27
 -1         6 7.41835E-28
 -1         7 1.12788E-27
 -1         8-5.05083E-27
 -1         9 1.74684E-26
 -1        10 2.88027E-27
 -1        11 0.00000E+00
 -1        12 0.00000E+00
 -1        13 0.00000E+00
 -1        14 0.00000E+00
 -1        15 0.00000E+00
 -1        16 0.00000E+00
 -1        17 0.00000E+00
 -1        18 0.00000E+00
 -3
    1PSTEP                         8          80           1          
  100CL  108 8.00000E-06          18                     1    8           1
 -4  ENER        1    1
 -5  ENER        1    1    0    0
 -1         1 0.00000E+00
 -1         2 0.00000E+00
 -1         3-1.96299E-27
 -1         4 2.49070E-26
 -1         5 3.34947E-26
 -1         6-1.02373E-26
 -1         7 8.66876E-28
 -1         8-7.94719E-27
 -1         9 1.11641E-28
 -1        10 3.08054E-28
 -1        11 0.00000E+00
 -1        12 0.00000E+00
 -1        13 0.00000E+00
 -1        14 0.00000E+00
 -1        15 0.00000E+00
 -1        16 0.00000E+00
 -1        17 0.00000E+00
 -1        18 0.00000E+00
 -3
    1PSTEP                         9          90           1          
  100CL  109 9.00000E-06          18                     1    9           1
 -4  ENER        1    1
 -5  ENER        1    1    0    0
 -1         1 0.00000E+00
 -1         2 0.00000E+00
 -1         3-1.86836E-27
 -1         4-3.53710E-27
 -1         5 1.26749E-26
 -1         6 3.76040E-27
 -1         7 1.27815E-27
 -1         8 5.61936E-27
 -1         9-4.80503E-27
 -1        10 6.94359E-27
 -1        11 0.00000E+00
 -1        12 0.00000E+00
 -1        13 0.00000E+00
 -1        14 0.00000E+00
 -1        15 0.00000E+00
 -1        16 0.00000E+00
 -1        17 0.00000E+00
 -1        18 0.00000E+00
 -3
    1PSTEP                        10         100           1          
  100CL  110 1.00000E-05          18                     1   10           1
 -4  ENER        1    1
 -5  ENER        1    1    0    0
 -1         1 0.00000E+00
 -1         2 0.00000E+00
 -1         3 2.70260E-27
 -1         4 1.55335E-26
 -1         5-1.00057E-26
 -1         6 7.67377E-27
 -1         7 9.48050E-27
 -1         8-4.29062E-28
 -1         9 1.53453E-26
 -1        10-8.45215E-27
 -1        11 0.00000E+00
 -1        12 0.00000E+00
 -1        13 0.00000E+00
 -1        14 0.00000E+00
 -1        15 0.00000E+00
 -1        16 0.00000E+00
 -1        17 0.00000E+00
 -1        18 0.00000E+00
 -3
 9999
