
                        S T E P       1


                                INCREMENT     1


 displacements (vx,vy,vz) for set N1 and time  0.1000000E+01

        26  0.000000E+00  0.000000E+00  0.000000E+00

                        S T E P       2


                                INCREMENT     1


 displacements (vx,vy,vz) for set N1 and time  0.2000000E+01

        26 -1.381789E-03 -1.381789E-03  6.774829E-02
