    1C
    1UUSER                                                              
    1UDATE              05.august.2022                                  
    1UTIME              17:24:26                                        
    1UHOST                                                              
    1UPGM               CalculiX                                        
    1UVERSION           Version DEVELOPMENT                             
    1UCOMPILETIME       Fri Aug  5 15:50:32 CEST 2022                    
    1UDIR                                                               
    1UDBN                                                               
    1UMAT    1EL                                                        
    1UMAT    2SI1                                                       
    2C                            40                                     1
 -1         1 1.00000E+00 1.00000E+00 0.00000E+00
 -1         2 1.00000E+00 0.00000E+00 0.00000E+00
 -1         3 1.00000E+00 0.00000E+00 1.00000E+00
 -1         4 1.00000E+00 1.00000E+00 1.00000E+00
 -1         5 0.00000E+00 1.00000E+00 0.00000E+00
 -1         6 0.00000E+00 0.00000E+00 0.00000E+00
 -1         7 0.00000E+00 0.00000E+00 1.00000E+00
 -1         8 0.00000E+00 1.00000E+00 1.00000E+00
 -1         9 1.00000E+00 5.00000E-01 0.00000E+00
 -1        10 1.00000E+00 0.00000E+00 5.00000E-01
 -1        11 1.00000E+00 5.00000E-01 1.00000E+00
 -1        12 1.00000E+00 1.00000E+00 5.00000E-01
 -1        13 5.00000E-01 1.00000E+00 0.00000E+00
 -1        14 5.00000E-01 0.00000E+00 0.00000E+00
 -1        15 5.00000E-01 0.00000E+00 1.00000E+00
 -1        16 5.00000E-01 1.00000E+00 1.00000E+00
 -1        17 0.00000E+00 5.00000E-01 0.00000E+00
 -1        18 0.00000E+00 0.00000E+00 5.00000E-01
 -1        19 0.00000E+00 5.00000E-01 1.00000E+00
 -1        20 0.00000E+00 1.00000E+00 5.00000E-01
 -1        21 7.50000E-01 7.50000E-01 1.00000E+00
 -1        22 7.50000E-01 2.50000E-01 1.00000E+00
 -1        23 7.50000E-01 2.50000E-01 1.50000E+00
 -1        24 7.50000E-01 7.50000E-01 1.50000E+00
 -1        25 2.50000E-01 7.50000E-01 1.00000E+00
 -1        26 2.50000E-01 2.50000E-01 1.00000E+00
 -1        27 2.50000E-01 2.50000E-01 1.50000E+00
 -1        28 2.50000E-01 7.50000E-01 1.50000E+00
 -1        29 7.50000E-01 5.00000E-01 1.00000E+00
 -1        30 7.50000E-01 2.50000E-01 1.25000E+00
 -1        31 7.50000E-01 5.00000E-01 1.50000E+00
 -1        32 7.50000E-01 7.50000E-01 1.25000E+00
 -1        33 5.00000E-01 7.50000E-01 1.00000E+00
 -1        34 5.00000E-01 2.50000E-01 1.00000E+00
 -1        35 5.00000E-01 2.50000E-01 1.50000E+00
 -1        36 5.00000E-01 7.50000E-01 1.50000E+00
 -1        37 2.50000E-01 5.00000E-01 1.00000E+00
 -1        38 2.50000E-01 2.50000E-01 1.25000E+00
 -1        39 2.50000E-01 5.00000E-01 1.50000E+00
 -1        40 2.50000E-01 7.50000E-01 1.25000E+00
 -3
    3C                             2                                     1
 -1         1    4    0    1
 -2         1         2         3         4         5         6         7         8         9        10
 -2        11        12        13        14        15        16        17        18        19        20
 -1         2    4    0    1
 -2        21        22        23        24        25        26        27        28        29        30
 -2        31        32        33        34        35        36        37        38        39        40
 -3
    1PSTEP                         1           1           1          
  100CL  101 1.00000E-08           1                     1    1           1
 -4  ENER        1    1
 -5  ENER        1    1    0    0
 -1        24 5.76798E-04
 -3
    1PSTEP                         2           2           1          
  100CL  102 2.00000E-08           1                     1    2           1
 -4  ENER        1    1
 -5  ENER        1    1    0    0
 -1        24 7.40436E-03
 -3
    1PSTEP                         3           3           1          
  100CL  103 3.00000E-08           1                     1    3           1
 -4  ENER        1    1
 -5  ENER        1    1    0    0
 -1        24 2.54403E-02
 -3
    1PSTEP                         4           4           1          
  100CL  104 4.00000E-08           1                     1    4           1
 -4  ENER        1    1
 -5  ENER        1    1    0    0
 -1        24 4.64836E-02
 -3
    1PSTEP                         5           5           1          
  100CL  105 5.00000E-08           1                     1    5           1
 -4  ENER        1    1
 -5  ENER        1    1    0    0
 -1        24 5.79333E-02
 -3
    1PSTEP                         6           6           1          
  100CL  106 6.00000E-08           1                     1    6           1
 -4  ENER        1    1
 -5  ENER        1    1    0    0
 -1        24 5.78786E-02
 -3
    1PSTEP                         7           7           1          
  100CL  107 7.00000E-08           1                     1    7           1
 -4  ENER        1    1
 -5  ENER        1    1    0    0
 -1        24 5.24769E-02
 -3
    1PSTEP                         8           8           1          
  100CL  108 8.00000E-08           1                     1    8           1
 -4  ENER        1    1
 -5  ENER        1    1    0    0
 -1        24 4.49764E-02
 -3
    1PSTEP                         9           9           1          
  100CL  109 9.00000E-08           1                     1    9           1
 -4  ENER        1    1
 -5  ENER        1    1    0    0
 -1        24 3.50928E-02
 -3
    1PSTEP                        10          10           1          
  100CL  110 1.00000E-07           1                     1   10           1
 -4  ENER        1    1
 -5  ENER        1    1    0    0
 -1        24 2.43809E-02
 -3
    1PSTEP                        11          11           1          
  100CL  111 1.10000E-07           1                     1   11           1
 -4  ENER        1    1
 -5  ENER        1    1    0    0
 -1        24 1.58293E-02
 -3
    1PSTEP                        12          12           1          
  100CL  112 1.20000E-07           1                     1   12           1
 -4  ENER        1    1
 -5  ENER        1    1    0    0
 -1        24 1.06086E-02
 -3
    1PSTEP                        13          13           1          
  100CL  113 1.30000E-07           1                     1   13           1
 -4  ENER        1    1
 -5  ENER        1    1    0    0
 -1        24 8.70885E-03
 -3
    1PSTEP                        14          14           1          
  100CL  114 1.40000E-07           1                     1   14           1
 -4  ENER        1    1
 -5  ENER        1    1    0    0
 -1        24 1.07953E-02
 -3
    1PSTEP                        15          15           1          
  100CL  115 1.50000E-07           1                     1   15           1
 -4  ENER        1    1
 -5  ENER        1    1    0    0
 -1        24 1.75533E-02
 -3
    1PSTEP                        16          16           1          
  100CL  116 1.60000E-07           1                     1   16           1
 -4  ENER        1    1
 -5  ENER        1    1    0    0
 -1        24 2.87616E-02
 -3
    1PSTEP                        17          17           1          
  100CL  117 1.70000E-07           1                     1   17           1
 -4  ENER        1    1
 -5  ENER        1    1    0    0
 -1        24 4.35436E-02
 -3
    1PSTEP                        18          18           1          
  100CL  118 1.80000E-07           1                     1   18           1
 -4  ENER        1    1
 -5  ENER        1    1    0    0
 -1        24 5.97271E-02
 -3
    1PSTEP                        19          19           1          
  100CL  119 1.90000E-07           1                     1   19           1
 -4  ENER        1    1
 -5  ENER        1    1    0    0
 -1        24 7.31306E-02
 -3
    1PSTEP                        20          20           1          
  100CL  120 2.00000E-07           1                     1   20           1
 -4  ENER        1    1
 -5  ENER        1    1    0    0
 -1        24 7.98860E-02
 -3
    1PSTEP                        21          21           1          
  100CL  121 2.10000E-07           1                     1   21           1
 -4  ENER        1    1
 -5  ENER        1    1    0    0
 -1        24 7.94959E-02
 -3
    1PSTEP                        22          22           1          
  100CL  122 2.20000E-07           1                     1   22           1
 -4  ENER        1    1
 -5  ENER        1    1    0    0
 -1        24 7.41761E-02
 -3
    1PSTEP                        23          23           1          
  100CL  123 2.30000E-07           1                     1   23           1
 -4  ENER        1    1
 -5  ENER        1    1    0    0
 -1        24 6.75902E-02
 -3
    1PSTEP                        24          24           1          
  100CL  124 2.40000E-07           1                     1   24           1
 -4  ENER        1    1
 -5  ENER        1    1    0    0
 -1        24 6.66668E-02
 -3
    1PSTEP                        25          25           1          
  100CL  125 2.50000E-07           1                     1   25           1
 -4  ENER        1    1
 -5  ENER        1    1    0    0
 -1        24 8.60262E-02
 -3
    1PSTEP                        26          26           1          
  100CL  126 2.60000E-07           1                     1   26           1
 -4  ENER        1    1
 -5  ENER        1    1    0    0
 -1        24 1.15270E-01
 -3
    1PSTEP                        27          27           1          
  100CL  127 2.70000E-07           1                     1   27           1
 -4  ENER        1    1
 -5  ENER        1    1    0    0
 -1        24 1.07045E-01
 -3
    1PSTEP                        28          28           1          
  100CL  128 2.80000E-07           1                     1   28           1
 -4  ENER        1    1
 -5  ENER        1    1    0    0
 -1        24 6.53673E-02
 -3
    1PSTEP                        29          29           1          
  100CL  129 2.90000E-07           1                     1   29           1
 -4  ENER        1    1
 -5  ENER        1    1    0    0
 -1        24 2.47548E-02
 -3
    1PSTEP                        30          30           1          
  100CL  130 3.00000E-07           1                     1   30           1
 -4  ENER        1    1
 -5  ENER        1    1    0    0
 -1        24 1.63359E-02
 -3
    1PSTEP                        31          31           1          
  100CL  131 3.10000E-07           1                     1   31           1
 -4  ENER        1    1
 -5  ENER        1    1    0    0
 -1        24 8.40462E-02
 -3
    1PSTEP                        32          32           1          
  100CL  132 3.20000E-07           1                     1   32           1
 -4  ENER        1    1
 -5  ENER        1    1    0    0
 -1        24 2.00003E-01
 -3
    1PSTEP                        33          33           1          
  100CL  133 3.30000E-07           1                     1   33           1
 -4  ENER        1    1
 -5  ENER        1    1    0    0
 -1        24 2.19979E-01
 -3
    1PSTEP                        34          34           1          
  100CL  134 3.40000E-07           1                     1   34           1
 -4  ENER        1    1
 -5  ENER        1    1    0    0
 -1        24 1.13529E-01
 -3
    1PSTEP                        35          35           1          
  100CL  135 3.50000E-07           1                     1   35           1
 -4  ENER        1    1
 -5  ENER        1    1    0    0
 -1        24 4.55059E-02
 -3
    1PSTEP                        36          36           1          
  100CL  136 3.60000E-07           1                     1   36           1
 -4  ENER        1    1
 -5  ENER        1    1    0    0
 -1        24 5.05350E-02
 -3
    1PSTEP                        37          37           1          
  100CL  137 3.70000E-07           1                     1   37           1
 -4  ENER        1    1
 -5  ENER        1    1    0    0
 -1        24 1.97176E-02
 -3
    1PSTEP                        38          38           1          
  100CL  138 3.80000E-07           1                     1   38           1
 -4  ENER        1    1
 -5  ENER        1    1    0    0
 -1        24-1.41368E-02
 -3
    1PSTEP                        39          39           1          
  100CL  139 3.90000E-07           1                     1   39           1
 -4  ENER        1    1
 -5  ENER        1    1    0    0
 -1        24 1.06797E-01
 -3
    1PSTEP                        40          40           1          
  100CL  140 4.00000E-07           1                     1   40           1
 -4  ENER        1    1
 -5  ENER        1    1    0    0
 -1        24 3.82430E-01
 -3
    1PSTEP                        41          41           1          
  100CL  141 4.10000E-07           1                     1   41           1
 -4  ENER        1    1
 -5  ENER        1    1    0    0
 -1        24 5.38325E-01
 -3
    1PSTEP                        42          42           1          
  100CL  142 4.20000E-07           1                     1   42           1
 -4  ENER        1    1
 -5  ENER        1    1    0    0
 -1        24 3.93649E-01
 -3
    1PSTEP                        43          43           1          
  100CL  143 4.30000E-07           1                     1   43           1
 -4  ENER        1    1
 -5  ENER        1    1    0    0
 -1        24 1.29613E-01
 -3
    1PSTEP                        44          44           1          
  100CL  144 4.40000E-07           1                     1   44           1
 -4  ENER        1    1
 -5  ENER        1    1    0    0
 -1        24 2.23480E-02
 -3
    1PSTEP                        45          45           1          
  100CL  145 4.50000E-07           1                     1   45           1
 -4  ENER        1    1
 -5  ENER        1    1    0    0
 -1        24 9.23361E-02
 -3
    1PSTEP                        46          46           1          
  100CL  146 4.60000E-07           1                     1   46           1
 -4  ENER        1    1
 -5  ENER        1    1    0    0
 -1        24 1.62373E-01
 -3
    1PSTEP                        47          47           1          
  100CL  147 4.70000E-07           1                     1   47           1
 -4  ENER        1    1
 -5  ENER        1    1    0    0
 -1        24 1.34431E-01
 -3
    1PSTEP                        48          48           1          
  100CL  148 4.80000E-07           1                     1   48           1
 -4  ENER        1    1
 -5  ENER        1    1    0    0
 -1        24 7.03504E-02
 -3
    1PSTEP                        49          49           1          
  100CL  149 4.90000E-07           1                     1   49           1
 -4  ENER        1    1
 -5  ENER        1    1    0    0
 -1        24 4.88086E-02
 -3
    1PSTEP                        50          50           1          
  100CL  150 5.00000E-07           1                     1   50           1
 -4  ENER        1    1
 -5  ENER        1    1    0    0
 -1        24 5.19496E-02
 -3
    1PSTEP                        51          51           1          
  100CL  151 5.10000E-07           1                     1   51           1
 -4  ENER        1    1
 -5  ENER        1    1    0    0
 -1        24 4.84817E-02
 -3
    1PSTEP                        52          52           1          
  100CL  152 5.20000E-07           1                     1   52           1
 -4  ENER        1    1
 -5  ENER        1    1    0    0
 -1        24 3.89954E-02
 -3
    1PSTEP                        53          53           1          
  100CL  153 5.30000E-07           1                     1   53           1
 -4  ENER        1    1
 -5  ENER        1    1    0    0
 -1        24 2.38054E-02
 -3
    1PSTEP                        54          54           1          
  100CL  154 5.40000E-07           1                     1   54           1
 -4  ENER        1    1
 -5  ENER        1    1    0    0
 -1        24 2.61103E-02
 -3
    1PSTEP                        55          55           1          
  100CL  155 5.50000E-07           1                     1   55           1
 -4  ENER        1    1
 -5  ENER        1    1    0    0
 -1        24 4.65071E-02
 -3
    1PSTEP                        56          56           1          
  100CL  156 5.60000E-07           1                     1   56           1
 -4  ENER        1    1
 -5  ENER        1    1    0    0
 -1        24 5.81435E-02
 -3
    1PSTEP                        57          57           1          
  100CL  157 5.70000E-07           1                     1   57           1
 -4  ENER        1    1
 -5  ENER        1    1    0    0
 -1        24 5.51865E-02
 -3
    1PSTEP                        58          58           1          
  100CL  158 5.80000E-07           1                     1   58           1
 -4  ENER        1    1
 -5  ENER        1    1    0    0
 -1        24 5.27380E-02
 -3
    1PSTEP                        59          59           1          
  100CL  159 5.90000E-07           1                     1   59           1
 -4  ENER        1    1
 -5  ENER        1    1    0    0
 -1        24 5.74102E-02
 -3
    1PSTEP                        60          60           1          
  100CL  160 6.00000E-07           1                     1   60           1
 -4  ENER        1    1
 -5  ENER        1    1    0    0
 -1        24 5.30827E-02
 -3
    1PSTEP                        61          61           1          
  100CL  161 6.10000E-07           1                     1   61           1
 -4  ENER        1    1
 -5  ENER        1    1    0    0
 -1        24 1.80912E-02
 -3
    1PSTEP                        62          62           1          
  100CL  162 6.20000E-07           1                     1   62           1
 -4  ENER        1    1
 -5  ENER        1    1    0    0
 -1        24-3.22756E-02
 -3
    1PSTEP                        63          63           1          
  100CL  163 6.30000E-07           1                     1   63           1
 -4  ENER        1    1
 -5  ENER        1    1    0    0
 -1        24-4.38542E-02
 -3
    1PSTEP                        64          64           1          
  100CL  164 6.40000E-07           1                     1   64           1
 -4  ENER        1    1
 -5  ENER        1    1    0    0
 -1        24-2.85033E-03
 -3
    1PSTEP                        65          65           1          
  100CL  165 6.50000E-07           1                     1   65           1
 -4  ENER        1    1
 -5  ENER        1    1    0    0
 -1        24 2.31110E-02
 -3
    1PSTEP                        66          66           1          
  100CL  166 6.60000E-07           1                     1   66           1
 -4  ENER        1    1
 -5  ENER        1    1    0    0
 -1        24 1.09953E-02
 -3
    1PSTEP                        67          67           1          
  100CL  167 6.70000E-07           1                     1   67           1
 -4  ENER        1    1
 -5  ENER        1    1    0    0
 -1        24 1.55860E-02
 -3
    1PSTEP                        68          68           1          
  100CL  168 6.80000E-07           1                     1   68           1
 -4  ENER        1    1
 -5  ENER        1    1    0    0
 -1        24 4.49477E-02
 -3
    1PSTEP                        69          69           1          
  100CL  169 6.90000E-07           1                     1   69           1
 -4  ENER        1    1
 -5  ENER        1    1    0    0
 -1        24 4.48155E-02
 -3
    1PSTEP                        70          70           1          
  100CL  170 7.00000E-07           1                     1   70           1
 -4  ENER        1    1
 -5  ENER        1    1    0    0
 -1        24 1.60988E-02
 -3
    1PSTEP                        71          71           1          
  100CL  171 7.10000E-07           1                     1   71           1
 -4  ENER        1    1
 -5  ENER        1    1    0    0
 -1        24 1.55551E-02
 -3
    1PSTEP                        72          72           1          
  100CL  172 7.20000E-07           1                     1   72           1
 -4  ENER        1    1
 -5  ENER        1    1    0    0
 -1        24 3.46572E-02
 -3
    1PSTEP                        73          73           1          
  100CL  173 7.30000E-07           1                     1   73           1
 -4  ENER        1    1
 -5  ENER        1    1    0    0
 -1        24 1.58906E-02
 -3
    1PSTEP                        74          74           1          
  100CL  174 7.40000E-07           1                     1   74           1
 -4  ENER        1    1
 -5  ENER        1    1    0    0
 -1        24-2.02924E-02
 -3
    1PSTEP                        75          75           1          
  100CL  175 7.50000E-07           1                     1   75           1
 -4  ENER        1    1
 -5  ENER        1    1    0    0
 -1        24-1.36145E-03
 -3
    1PSTEP                        76          76           1          
  100CL  176 7.60000E-07           1                     1   76           1
 -4  ENER        1    1
 -5  ENER        1    1    0    0
 -1        24 6.02938E-02
 -3
    1PSTEP                        77          77           1          
  100CL  177 7.70000E-07           1                     1   77           1
 -4  ENER        1    1
 -5  ENER        1    1    0    0
 -1        24 8.38673E-02
 -3
    1PSTEP                        78          78           1          
  100CL  178 7.80000E-07           1                     1   78           1
 -4  ENER        1    1
 -5  ENER        1    1    0    0
 -1        24 6.48998E-02
 -3
    1PSTEP                        79          79           1          
  100CL  179 7.90000E-07           1                     1   79           1
 -4  ENER        1    1
 -5  ENER        1    1    0    0
 -1        24 7.37477E-02
 -3
    1PSTEP                        80          80           1          
  100CL  180 8.00000E-07           1                     1   80           1
 -4  ENER        1    1
 -5  ENER        1    1    0    0
 -1        24 1.22426E-01
 -3
    1PSTEP                        81          81           1          
  100CL  181 8.10000E-07           1                     1   81           1
 -4  ENER        1    1
 -5  ENER        1    1    0    0
 -1        24 1.47179E-01
 -3
    1PSTEP                        82          82           1          
  100CL  182 8.20000E-07           1                     1   82           1
 -4  ENER        1    1
 -5  ENER        1    1    0    0
 -1        24 1.11211E-01
 -3
    1PSTEP                        83          83           1          
  100CL  183 8.30000E-07           1                     1   83           1
 -4  ENER        1    1
 -5  ENER        1    1    0    0
 -1        24 4.64820E-02
 -3
    1PSTEP                        84          84           1          
  100CL  184 8.40000E-07           1                     1   84           1
 -4  ENER        1    1
 -5  ENER        1    1    0    0
 -1        24 3.66009E-03
 -3
    1PSTEP                        85          85           1          
  100CL  185 8.50000E-07           1                     1   85           1
 -4  ENER        1    1
 -5  ENER        1    1    0    0
 -1        24 1.07303E-02
 -3
    1PSTEP                        86          86           1          
  100CL  186 8.60000E-07           1                     1   86           1
 -4  ENER        1    1
 -5  ENER        1    1    0    0
 -1        24 6.46981E-02
 -3
    1PSTEP                        87          87           1          
  100CL  187 8.70000E-07           1                     1   87           1
 -4  ENER        1    1
 -5  ENER        1    1    0    0
 -1        24 1.23069E-01
 -3
    1PSTEP                        88          88           1          
  100CL  188 8.80000E-07           1                     1   88           1
 -4  ENER        1    1
 -5  ENER        1    1    0    0
 -1        24 1.24122E-01
 -3
    1PSTEP                        89          89           1          
  100CL  189 8.90000E-07           1                     1   89           1
 -4  ENER        1    1
 -5  ENER        1    1    0    0
 -1        24 5.60822E-02
 -3
    1PSTEP                        90          90           1          
  100CL  190 9.00000E-07           1                     1   90           1
 -4  ENER        1    1
 -5  ENER        1    1    0    0
 -1        24-1.83850E-03
 -3
    1PSTEP                        91          91           1          
  100CL  191 9.10000E-07           1                     1   91           1
 -4  ENER        1    1
 -5  ENER        1    1    0    0
 -1        24 2.33250E-02
 -3
    1PSTEP                        92          92           1          
  100CL  192 9.20000E-07           1                     1   92           1
 -4  ENER        1    1
 -5  ENER        1    1    0    0
 -1        24 9.04100E-02
 -3
    1PSTEP                        93          93           1          
  100CL  193 9.30000E-07           1                     1   93           1
 -4  ENER        1    1
 -5  ENER        1    1    0    0
 -1        24 1.20283E-01
 -3
    1PSTEP                        94          94           1          
  100CL  194 9.40000E-07           1                     1   94           1
 -4  ENER        1    1
 -5  ENER        1    1    0    0
 -1        24 1.21204E-01
 -3
    1PSTEP                        95          95           1          
  100CL  195 9.50000E-07           1                     1   95           1
 -4  ENER        1    1
 -5  ENER        1    1    0    0
 -1        24 1.36922E-01
 -3
    1PSTEP                        96          96           1          
  100CL  196 9.60000E-07           1                     1   96           1
 -4  ENER        1    1
 -5  ENER        1    1    0    0
 -1        24 1.40182E-01
 -3
    1PSTEP                        97          97           1          
  100CL  197 9.70000E-07           1                     1   97           1
 -4  ENER        1    1
 -5  ENER        1    1    0    0
 -1        24 9.67662E-02
 -3
    1PSTEP                        98          98           1          
  100CL  198 9.80000E-07           1                     1   98           1
 -4  ENER        1    1
 -5  ENER        1    1    0    0
 -1        24 5.08691E-02
 -3
    1PSTEP                        99          99           1          
  100CL  199 9.90000E-07           1                     1   99           1
 -4  ENER        1    1
 -5  ENER        1    1    0    0
 -1        24 4.15400E-02
 -3
    1PSTEP                       100         100           1          
  100CL  200 1.00000E-06           1                     1  100           1
 -4  ENER        1    1
 -5  ENER        1    1    0    0
 -1        24 3.57290E-02
 -3
    1PSTEP                       101         101           1          
  100CL  201 1.00000E-06           1                     1  101           1
 -4  ENER        1    1
 -5  ENER        1    1    0    0
 -1        24 3.57275E-02
 -3
 9999
