    1C
    1UUSER                                                              
    1UDATE              18.october.2022                                 
    1UTIME              21:16:02                                        
    1UHOST                                                              
    1UPGM               CalculiX                                        
    1UVERSION           Version DEVELOPMENT                             
    1UCOMPILETIME       Tue Oct 18 21:01:34 CEST 2022                    
    1UDIR                                                               
    1UDBN                                                               
    1UMAT    1EL                                                        
    1UMAT    2SI1                                                       
    2C                            16                                     1
 -1         1 1.00000E+00 1.00000E+00 0.00000E+00
 -1         2 1.00000E+00 0.00000E+00 0.00000E+00
 -1         3 1.00000E+00 0.00000E+00 1.00000E+00
 -1         4 1.00000E+00 1.00000E+00 1.00000E+00
 -1         5 0.00000E+00 1.00000E+00 0.00000E+00
 -1         6 0.00000E+00 0.00000E+00 0.00000E+00
 -1         7 0.00000E+00 0.00000E+00 1.00000E+00
 -1         8 0.00000E+00 1.00000E+00 1.00000E+00
 -1        21 7.50000E-01 7.50000E-01 1.00000E+00
 -1        22 7.50000E-01 2.50000E-01 1.00000E+00
 -1        23 7.50000E-01 2.50000E-01 1.50000E+00
 -1        24 7.50000E-01 7.50000E-01 1.50000E+00
 -1        25 2.50000E-01 7.50000E-01 1.00000E+00
 -1        26 2.50000E-01 2.50000E-01 1.00000E+00
 -1        27 2.50000E-01 2.50000E-01 1.50000E+00
 -1        28 2.50000E-01 7.50000E-01 1.50000E+00
 -3
    3C                             2                                     1
 -1         1    1    0    1
 -2         1         2         3         4         5         6         7         8
 -1         2    1    0    1
 -2        21        22        23        24        25        26        27        28
 -3
    1PSTEP                         1           1           1          
  100CL  101 2.50000E-08           1                     1    1           1
 -4  ENER        1    1
 -5  ENER        1    1    0    0
 -1        23 9.70652E-04
 -3
    1PSTEP                         2           2           1          
  100CL  102 5.00000E-08           1                     1    2           1
 -4  ENER        1    1
 -5  ENER        1    1    0    0
 -1        23 6.22263E-03
 -3
    1PSTEP                         3           3           1          
  100CL  103 7.50000E-08           1                     1    3           1
 -4  ENER        1    1
 -5  ENER        1    1    0    0
 -1        23 1.87053E-02
 -3
    1PSTEP                         4           4           1          
  100CL  104 1.00000E-07           1                     1    4           1
 -4  ENER        1    1
 -5  ENER        1    1    0    0
 -1        23 3.88215E-02
 -3
    1PSTEP                         5           5           1          
  100CL  105 1.25000E-07           1                     1    5           1
 -4  ENER        1    1
 -5  ENER        1    1    0    0
 -1        23 6.32976E-02
 -3
    1PSTEP                         6           6           1          
  100CL  106 1.50000E-07           1                     1    6           1
 -4  ENER        1    1
 -5  ENER        1    1    0    0
 -1        23 8.59224E-02
 -3
    1PSTEP                         7           7           1          
  100CL  107 1.75000E-07           1                     1    7           1
 -4  ENER        1    1
 -5  ENER        1    1    0    0
 -1        23 9.98980E-02
 -3
    1PSTEP                         8           8           1          
  100CL  108 2.00000E-07           1                     1    8           1
 -4  ENER        1    1
 -5  ENER        1    1    0    0
 -1        23 1.00700E-01
 -3
    1PSTEP                         9           9           1          
  100CL  109 2.25000E-07           1                     1    9           1
 -4  ENER        1    1
 -5  ENER        1    1    0    0
 -1        23 8.80592E-02
 -3
    1PSTEP                        10          10           1          
  100CL  110 2.50000E-07           1                     1   10           1
 -4  ENER        1    1
 -5  ENER        1    1    0    0
 -1        23 6.60828E-02
 -3
    1PSTEP                        11          11           1          
  100CL  111 2.75000E-07           1                     1   11           1
 -4  ENER        1    1
 -5  ENER        1    1    0    0
 -1        23 4.14542E-02
 -3
    1PSTEP                        12          12           1          
  100CL  112 3.00000E-07           1                     1   12           1
 -4  ENER        1    1
 -5  ENER        1    1    0    0
 -1        23 2.06027E-02
 -3
    1PSTEP                        13          13           1          
  100CL  113 3.25000E-07           1                     1   13           1
 -4  ENER        1    1
 -5  ENER        1    1    0    0
 -1        23 7.21452E-03
 -3
    1PSTEP                        14          14           1          
  100CL  114 3.50000E-07           1                     1   14           1
 -4  ENER        1    1
 -5  ENER        1    1    0    0
 -1        23 1.27383E-03
 -3
    1PSTEP                        15          15           1          
  100CL  115 3.75000E-07           1                     1   15           1
 -4  ENER        1    1
 -5  ENER        1    1    0    0
 -1        23 5.85938E-06
 -3
    1PSTEP                        16          16           1          
  100CL  116 4.00000E-07           1                     1   16           1
 -4  ENER        1    1
 -5  ENER        1    1    0    0
 -1        23 1.08082E-04
 -3
    1PSTEP                        17          17           1          
  100CL  117 4.25000E-07           1                     1   17           1
 -4  ENER        1    1
 -5  ENER        1    1    0    0
 -1        23 1.08017E-06
 -3
    1PSTEP                        18          18           1          
  100CL  118 4.50000E-07           1                     1   18           1
 -4  ENER        1    1
 -5  ENER        1    1    0    0
 -1        23 8.79550E-04
 -3
    1PSTEP                        19          19           1          
  100CL  119 4.75000E-07           1                     1   19           1
 -4  ENER        1    1
 -5  ENER        1    1    0    0
 -1        23 5.86582E-03
 -3
    1PSTEP                        20          20           1          
  100CL  120 5.00000E-07           1                     1   20           1
 -4  ENER        1    1
 -5  ENER        1    1    0    0
 -1        23 1.79516E-02
 -3
    1PSTEP                        21          21           1          
  100CL  121 5.25000E-07           1                     1   21           1
 -4  ENER        1    1
 -5  ENER        1    1    0    0
 -1        23 3.76877E-02
 -3
    1PSTEP                        22          22           1          
  100CL  122 5.50000E-07           1                     1   22           1
 -4  ENER        1    1
 -5  ENER        1    1    0    0
 -1        23 6.19839E-02
 -3
    1PSTEP                        23          23           1          
  100CL  123 5.75000E-07           1                     1   23           1
 -4  ENER        1    1
 -5  ENER        1    1    0    0
 -1        23 8.47547E-02
 -3
    1PSTEP                        24          24           1          
  100CL  124 6.00000E-07           1                     1   24           1
 -4  ENER        1    1
 -5  ENER        1    1    0    0
 -1        23 9.92009E-02
 -3
    1PSTEP                        25          25           1          
  100CL  125 6.25000E-07           1                     1   25           1
 -4  ENER        1    1
 -5  ENER        1    1    0    0
 -1        23 1.00661E-01
 -3
    1PSTEP                        26          26           1          
  100CL  126 6.50000E-07           1                     1   26           1
 -4  ENER        1    1
 -5  ENER        1    1    0    0
 -1        23 8.86468E-02
 -3
    1PSTEP                        27          27           1          
  100CL  127 6.75000E-07           1                     1   27           1
 -4  ENER        1    1
 -5  ENER        1    1    0    0
 -1        23 6.70670E-02
 -3
    1PSTEP                        28          28           1          
  100CL  128 7.00000E-07           1                     1   28           1
 -4  ENER        1    1
 -5  ENER        1    1    0    0
 -1        23 4.25074E-02
 -3
    1PSTEP                        29          29           1          
  100CL  129 7.25000E-07           1                     1   29           1
 -4  ENER        1    1
 -5  ENER        1    1    0    0
 -1        23 2.14401E-02
 -3
    1PSTEP                        30          30           1          
  100CL  130 7.50000E-07           1                     1   30           1
 -4  ENER        1    1
 -5  ENER        1    1    0    0
 -1        23 7.70111E-03
 -3
    1PSTEP                        31          31           1          
  100CL  131 7.75000E-07           1                     1   31           1
 -4  ENER        1    1
 -5  ENER        1    1    0    0
 -1        23 1.44848E-03
 -3
    1PSTEP                        32          32           1          
  100CL  132 8.00000E-07           1                     1   32           1
 -4  ENER        1    1
 -5  ENER        1    1    0    0
 -1        23 1.61650E-05
 -3
    1PSTEP                        33          33           1          
  100CL  133 8.25000E-07           1                     1   33           1
 -4  ENER        1    1
 -5  ENER        1    1    0    0
 -1        23 9.56432E-05
 -3
    1PSTEP                        34          34           1          
  100CL  134 8.50000E-07           1                     1   34           1
 -4  ENER        1    1
 -5  ENER        1    1    0    0
 -1        23 2.21706E-06
 -3
    1PSTEP                        35          35           1          
  100CL  135 8.75000E-07           1                     1   35           1
 -4  ENER        1    1
 -5  ENER        1    1    0    0
 -1        23 7.93188E-04
 -3
    1PSTEP                        36          36           1          
  100CL  136 9.00000E-07           1                     1   36           1
 -4  ENER        1    1
 -5  ENER        1    1    0    0
 -1        23 5.52055E-03
 -3
    1PSTEP                        37          37           1          
  100CL  137 9.25000E-07           1                     1   37           1
 -4  ENER        1    1
 -5  ENER        1    1    0    0
 -1        23 1.72157E-02
 -3
    1PSTEP                        38          38           1          
  100CL  138 9.50000E-07           1                     1   38           1
 -4  ENER        1    1
 -5  ENER        1    1    0    0
 -1        23 3.65741E-02
 -3
    1PSTEP                        39          39           1          
  100CL  139 9.75000E-07           1                     1   39           1
 -4  ENER        1    1
 -5  ENER        1    1    0    0
 -1        23 6.06880E-02
 -3
    1PSTEP                        40          40           1          
  100CL  140 1.00000E-06           1                     1   40           1
 -4  ENER        1    1
 -5  ENER        1    1    0    0
 -1        23 8.35987E-02
 -3
    1PSTEP                        41          41           1          
  100CL  141 1.02500E-06           1                     1   41           1
 -4  ENER        1    1
 -5  ENER        1    1    0    0
 -1        23 9.85084E-02
 -3
    1PSTEP                        42          42           1          
  100CL  142 1.05000E-06           1                     1   42           1
 -4  ENER        1    1
 -5  ENER        1    1    0    0
 -1        23 1.00621E-01
 -3
    1PSTEP                        43          43           1          
  100CL  143 1.07500E-06           1                     1   43           1
 -4  ENER        1    1
 -5  ENER        1    1    0    0
 -1        23 8.92346E-02
 -3
    1PSTEP                        44          44           1          
  100CL  144 1.10000E-06           1                     1   44           1
 -4  ENER        1    1
 -5  ENER        1    1    0    0
 -1        23 6.80554E-02
 -3
    1PSTEP                        45          45           1          
  100CL  145 1.12500E-06           1                     1   45           1
 -4  ENER        1    1
 -5  ENER        1    1    0    0
 -1        23 4.35705E-02
 -3
    1PSTEP                        46          46           1          
  100CL  146 1.15000E-06           1                     1   46           1
 -4  ENER        1    1
 -5  ENER        1    1    0    0
 -1        23 2.22915E-02
 -3
    1PSTEP                        47          47           1          
  100CL  147 1.17500E-06           1                     1   47           1
 -4  ENER        1    1
 -5  ENER        1    1    0    0
 -1        23 8.20195E-03
 -3
    1PSTEP                        48          48           1          
  100CL  148 1.20000E-06           1                     1   48           1
 -4  ENER        1    1
 -5  ENER        1    1    0    0
 -1        23 1.63372E-03
 -3
    1PSTEP                        49          49           1          
  100CL  149 1.22500E-06           1                     1   49           1
 -4  ENER        1    1
 -5  ENER        1    1    0    0
 -1        23 3.15294E-05
 -3
    1PSTEP                        50          50           1          
  100CL  150 1.25000E-06           1                     1   50           1
 -4  ENER        1    1
 -5  ENER        1    1    0    0
 -1        23 8.40078E-05
 -3
    1PSTEP                        51          51           1          
  100CL  151 1.27500E-06           1                     1   51           1
 -4  ENER        1    1
 -5  ENER        1    1    0    0
 -1        23 3.75447E-06
 -3
    1PSTEP                        52          52           1          
  100CL  152 1.30000E-06           1                     1   52           1
 -4  ENER        1    1
 -5  ENER        1    1    0    0
 -1        23 7.11537E-04
 -3
    1PSTEP                        53          53           1          
  100CL  153 1.32500E-06           1                     1   53           1
 -4  ENER        1    1
 -5  ENER        1    1    0    0
 -1        23 5.18679E-03
 -3
    1PSTEP                        54          54           1          
  100CL  154 1.35000E-06           1                     1   54           1
 -4  ENER        1    1
 -5  ENER        1    1    0    0
 -1        23 1.64973E-02
 -3
    1PSTEP                        55          55           1          
  100CL  155 1.37500E-06           1                     1   55           1
 -4  ENER        1    1
 -5  ENER        1    1    0    0
 -1        23 3.54806E-02
 -3
    1PSTEP                        56          56           1          
  100CL  156 1.40000E-06           1                     1   56           1
 -4  ENER        1    1
 -5  ENER        1    1    0    0
 -1        23 5.94097E-02
 -3
    1PSTEP                        57          57           1          
  100CL  157 1.42500E-06           1                     1   57           1
 -4  ENER        1    1
 -5  ENER        1    1    0    0
 -1        23 8.24541E-02
 -3
    1PSTEP                        58          58           1          
  100CL  158 1.45000E-06           1                     1   58           1
 -4  ENER        1    1
 -5  ENER        1    1    0    0
 -1        23 9.78206E-02
 -3
    1PSTEP                        59          59           1          
  100CL  159 1.47500E-06           1                     1   59           1
 -4  ENER        1    1
 -5  ENER        1    1    0    0
 -1        23 1.00582E-01
 -3
    1PSTEP                        60          60           1          
  100CL  160 1.50000E-06           1                     1   60           1
 -4  ENER        1    1
 -5  ENER        1    1    0    0
 -1        23 8.98227E-02
 -3
    1PSTEP                        61          61           1          
  100CL  161 1.52500E-06           1                     1   61           1
 -4  ENER        1    1
 -5  ENER        1    1    0    0
 -1        23 6.90482E-02
 -3
    1PSTEP                        62          62           1          
  100CL  162 1.55000E-06           1                     1   62           1
 -4  ENER        1    1
 -5  ENER        1    1    0    0
 -1        23 4.46436E-02
 -3
    1PSTEP                        63          63           1          
  100CL  163 1.57500E-06           1                     1   63           1
 -4  ENER        1    1
 -5  ENER        1    1    0    0
 -1        23 2.31570E-02
 -3
    1PSTEP                        64          64           1          
  100CL  164 1.60000E-06           1                     1   64           1
 -4  ENER        1    1
 -5  ENER        1    1    0    0
 -1        23 8.71706E-03
 -3
    1PSTEP                        65          65           1          
  100CL  165 1.62500E-06           1                     1   65           1
 -4  ENER        1    1
 -5  ENER        1    1    0    0
 -1        23 1.82953E-03
 -3
    1PSTEP                        66          66           1          
  100CL  166 1.65000E-06           1                     1   66           1
 -4  ENER        1    1
 -5  ENER        1    1    0    0
 -1        23 5.19115E-05
 -3
    1PSTEP                        67          67           1          
  100CL  167 1.67500E-06           1                     1   67           1
 -4  ENER        1    1
 -5  ENER        1    1    0    0
 -1        23 7.31603E-05
 -3
    1PSTEP                        68          68           1          
  100CL  168 1.70000E-06           1                     1   68           1
 -4  ENER        1    1
 -5  ENER        1    1    0    0
 -1        23 5.68949E-06
 -3
    1PSTEP                        69          69           1          
  100CL  169 1.72500E-06           1                     1   69           1
 -4  ENER        1    1
 -5  ENER        1    1    0    0
 -1        23 6.34531E-04
 -3
    1PSTEP                        70          70           1          
  100CL  170 1.75000E-06           1                     1   70           1
 -4  ENER        1    1
 -5  ENER        1    1    0    0
 -1        23 4.86433E-03
 -3
    1PSTEP                        71          71           1          
  100CL  171 1.77500E-06           1                     1   71           1
 -4  ENER        1    1
 -5  ENER        1    1    0    0
 -1        23 1.57963E-02
 -3
    1PSTEP                        72          72           1          
  100CL  172 1.80000E-06           1                     1   72           1
 -4  ENER        1    1
 -5  ENER        1    1    0    0
 -1        23 3.44067E-02
 -3
    1PSTEP                        73          73           1          
  100CL  173 1.82500E-06           1                     1   73           1
 -4  ENER        1    1
 -5  ENER        1    1    0    0
 -1        23 5.81486E-02
 -3
    1PSTEP                        74          74           1          
  100CL  174 1.85000E-06           1                     1   74           1
 -4  ENER        1    1
 -5  ENER        1    1    0    0
 -1        23 8.13206E-02
 -3
    1PSTEP                        75          75           1          
  100CL  175 1.87500E-06           1                     1   75           1
 -4  ENER        1    1
 -5  ENER        1    1    0    0
 -1        23 9.71371E-02
 -3
    1PSTEP                        76          76           1          
  100CL  176 1.90000E-06           1                     1   76           1
 -4  ENER        1    1
 -5  ENER        1    1    0    0
 -1        23 1.00543E-01
 -3
    1PSTEP                        77          77           1          
  100CL  177 1.92500E-06           1                     1   77           1
 -4  ENER        1    1
 -5  ENER        1    1    0    0
 -1        23 9.04112E-02
 -3
    1PSTEP                        78          78           1          
  100CL  178 1.95000E-06           1                     1   78           1
 -4  ENER        1    1
 -5  ENER        1    1    0    0
 -1        23 7.00454E-02
 -3
    1PSTEP                        79          79           1          
  100CL  179 1.97500E-06           1                     1   79           1
 -4  ENER        1    1
 -5  ENER        1    1    0    0
 -1        23 4.57267E-02
 -3
    1PSTEP                        80          80           1          
  100CL  180 2.00000E-06           1                     1   80           1
 -4  ENER        1    1
 -5  ENER        1    1    0    0
 -1        23 2.40364E-02
 -3
    1PSTEP                        81          81           1          
  100CL  181 2.02500E-06           1                     1   81           1
 -4  ENER        1    1
 -5  ENER        1    1    0    0
 -1        23 9.24631E-03
 -3
    1PSTEP                        82          82           1          
  100CL  182 2.05000E-06           1                     1   82           1
 -4  ENER        1    1
 -5  ENER        1    1    0    0
 -1        23 2.03580E-03
 -3
    1PSTEP                        83          83           1          
  100CL  183 2.07500E-06           1                     1   83           1
 -4  ENER        1    1
 -5  ENER        1    1    0    0
 -1        23 7.72699E-05
 -3
    1PSTEP                        84          84           1          
  100CL  184 2.10000E-06           1                     1   84           1
 -4  ENER        1    1
 -5  ENER        1    1    0    0
 -1        23 6.30881E-05
 -3
    1PSTEP                        85          85           1          
  100CL  185 2.12500E-06           1                     1   85           1
 -4  ENER        1    1
 -5  ENER        1    1    0    0
 -1        23 8.01706E-06
 -3
    1PSTEP                        86          86           1          
  100CL  186 2.15000E-06           1                     1   86           1
 -4  ENER        1    1
 -5  ENER        1    1    0    0
 -1        23 5.62138E-04
 -3
    1PSTEP                        87          87           1          
  100CL  187 2.17500E-06           1                     1   87           1
 -4  ENER        1    1
 -5  ENER        1    1    0    0
 -1        23 4.55311E-03
 -3
    1PSTEP                        88          88           1          
  100CL  188 2.20000E-06           1                     1   88           1
 -4  ENER        1    1
 -5  ENER        1    1    0    0
 -1        23 1.51124E-02
 -3
    1PSTEP                        89          89           1          
  100CL  189 2.22500E-06           1                     1   89           1
 -4  ENER        1    1
 -5  ENER        1    1    0    0
 -1        23 3.33524E-02
 -3
    1PSTEP                        90          90           1          
  100CL  190 2.25000E-06           1                     1   90           1
 -4  ENER        1    1
 -5  ENER        1    1    0    0
 -1        23 5.69047E-02
 -3
    1PSTEP                        91          91           1          
  100CL  191 2.27500E-06           1                     1   91           1
 -4  ENER        1    1
 -5  ENER        1    1    0    0
 -1        23 8.01984E-02
 -3
    1PSTEP                        92          92           1          
  100CL  192 2.30000E-06           1                     1   92           1
 -4  ENER        1    1
 -5  ENER        1    1    0    0
 -1        23 9.64583E-02
 -3
    1PSTEP                        93          93           1          
  100CL  193 2.32500E-06           1                     1   93           1
 -4  ENER        1    1
 -5  ENER        1    1    0    0
 -1        23 1.00504E-01
 -3
    1PSTEP                        94          94           1          
  100CL  194 2.35000E-06           1                     1   94           1
 -4  ENER        1    1
 -5  ENER        1    1    0    0
 -1        23 9.09999E-02
 -3
    1PSTEP                        95          95           1          
  100CL  195 2.37500E-06           1                     1   95           1
 -4  ENER        1    1
 -5  ENER        1    1    0    0
 -1        23 7.10467E-02
 -3
    1PSTEP                        96          96           1          
  100CL  196 2.40000E-06           1                     1   96           1
 -4  ENER        1    1
 -5  ENER        1    1    0    0
 -1        23 4.68194E-02
 -3
    1PSTEP                        97          97           1          
  100CL  197 2.42500E-06           1                     1   97           1
 -4  ENER        1    1
 -5  ENER        1    1    0    0
 -1        23 2.49294E-02
 -3
    1PSTEP                        98          98           1          
  100CL  198 2.45000E-06           1                     1   98           1
 -4  ENER        1    1
 -5  ENER        1    1    0    0
 -1        23 9.78952E-03
 -3
    1PSTEP                        99          99           1          
  100CL  199 2.47500E-06           1                     1   99           1
 -4  ENER        1    1
 -5  ENER        1    1    0    0
 -1        23 2.25243E-03
 -3
    1PSTEP                       100         100           1          
  100CL  200 2.50000E-06           1                     1  100           1
 -4  ENER        1    1
 -5  ENER        1    1    0    0
 -1        23 1.07560E-04
 -3
    1PSTEP                       101         101           1          
  100CL  201 2.52500E-06           1                     1  101           1
 -4  ENER        1    1
 -5  ENER        1    1    0    0
 -1        23 5.37852E-05
 -3
    1PSTEP                       102         102           1          
  100CL  202 2.55000E-06           1                     1  102           1
 -4  ENER        1    1
 -5  ENER        1    1    0    0
 -1        23 1.07325E-05
 -3
    1PSTEP                       103         103           1          
  100CL  203 2.57500E-06           1                     1  103           1
 -4  ENER        1    1
 -5  ENER        1    1    0    0
 -1        23 4.94328E-04
 -3
    1PSTEP                       104         104           1          
  100CL  204 2.60000E-06           1                     1  104           1
 -4  ENER        1    1
 -5  ENER        1    1    0    0
 -1        23 4.25307E-03
 -3
    1PSTEP                       105         105           1          
  100CL  205 2.62500E-06           1                     1  105           1
 -4  ENER        1    1
 -5  ENER        1    1    0    0
 -1        23 1.44457E-02
 -3
    1PSTEP                       106         106           1          
  100CL  206 2.65000E-06           1                     1  106           1
 -4  ENER        1    1
 -5  ENER        1    1    0    0
 -1        23 3.23177E-02
 -3
    1PSTEP                       107         107           1          
  100CL  207 2.67500E-06           1                     1  107           1
 -4  ENER        1    1
 -5  ENER        1    1    0    0
 -1        23 5.56780E-02
 -3
    1PSTEP                       108         108           1          
  100CL  208 2.70000E-06           1                     1  108           1
 -4  ENER        1    1
 -5  ENER        1    1    0    0
 -1        23 7.90874E-02
 -3
    1PSTEP                       109         109           1          
  100CL  209 2.72500E-06           1                     1  109           1
 -4  ENER        1    1
 -5  ENER        1    1    0    0
 -1        23 9.57839E-02
 -3
    1PSTEP                       110         110           1          
  100CL  210 2.75000E-06           1                     1  110           1
 -4  ENER        1    1
 -5  ENER        1    1    0    0
 -1        23 1.00466E-01
 -3
    1PSTEP                       111         111           1          
  100CL  211 2.77500E-06           1                     1  111           1
 -4  ENER        1    1
 -5  ENER        1    1    0    0
 -1        23 9.15888E-02
 -3
    1PSTEP                       112         112           1          
  100CL  212 2.80000E-06           1                     1  112           1
 -4  ENER        1    1
 -5  ENER        1    1    0    0
 -1        23 7.20523E-02
 -3
    1PSTEP                       113         113           1          
  100CL  213 2.82500E-06           1                     1  113           1
 -4  ENER        1    1
 -5  ENER        1    1    0    0
 -1        23 4.79219E-02
 -3
    1PSTEP                       114         114           1          
  100CL  214 2.85000E-06           1                     1  114           1
 -4  ENER        1    1
 -5  ENER        1    1    0    0
 -1        23 2.58361E-02
 -3
    1PSTEP                       115         115           1          
  100CL  215 2.87500E-06           1                     1  115           1
 -4  ENER        1    1
 -5  ENER        1    1    0    0
 -1        23 1.03465E-02
 -3
    1PSTEP                       116         116           1          
  100CL  216 2.90000E-06           1                     1  116           1
 -4  ENER        1    1
 -5  ENER        1    1    0    0
 -1        23 2.47929E-03
 -3
    1PSTEP                       117         117           1          
  100CL  217 2.92500E-06           1                     1  117           1
 -4  ENER        1    1
 -5  ENER        1    1    0    0
 -1        23 1.42725E-04
 -3
    1PSTEP                       118         118           1          
  100CL  218 2.95000E-06           1                     1  118           1
 -4  ENER        1    1
 -5  ENER        1    1    0    0
 -1        23 4.52555E-05
 -3
    1PSTEP                       119         119           1          
  100CL  219 2.97500E-06           1                     1  119           1
 -4  ENER        1    1
 -5  ENER        1    1    0    0
 -1        23 1.38372E-05
 -3