    1C
    1UUSER                                                              
    1UDATE              23.january.2024                                 
    1UTIME              21:44:40                                        
    1UHOST                                                              
    1UPGM               CalculiX                                        
    1UVERSION           Version DEVELOPMENT                             
    1UCOMPILETIME       Tue Jan 23 19:39:42 CET 2024                    
    1UDIR                                                               
    1UDBN                                                               
    1UMAT    1EL                                                        
    1UMAT    2SI1                                                       
    2C                            16                                     1
 -1         1 1.00000E+00 1.00000E+00 0.00000E+00
 -1         2 1.00000E+00 0.00000E+00 0.00000E+00
 -1         3 1.00000E+00 0.00000E+00 1.00000E+00
 -1         4 1.00000E+00 1.00000E+00 1.00000E+00
 -1         5 0.00000E+00 1.00000E+00 0.00000E+00
 -1         6 0.00000E+00 0.00000E+00 0.00000E+00
 -1         7 0.00000E+00 0.00000E+00 1.00000E+00
 -1         8 0.00000E+00 1.00000E+00 1.00000E+00
 -1        21 7.50000E-01 7.50000E-01 1.00000E+00
 -1        22 7.50000E-01 2.50000E-01 1.00000E+00
 -1        23 7.50000E-01 2.50000E-01 1.50000E+00
 -1        24 7.50000E-01 7.50000E-01 1.50000E+00
 -1        25 2.50000E-01 7.50000E-01 1.00000E+00
 -1        26 2.50000E-01 2.50000E-01 1.00000E+00
 -1        27 2.50000E-01 2.50000E-01 1.50000E+00
 -1        28 2.50000E-01 7.50000E-01 1.50000E+00
 -3
    3C                             2                                     1
 -1         1    1    0    1
 -2         1         2         3         4         5         6         7         8
 -1         2    1    0    1
 -2        21        22        23        24        25        26        27        28
 -3
    1PSTEP                         1           1           1          
  100CL  101 2.50000E-08           1                     1    1           1
 -4  DISP        4    1
 -5  D1          1    2    1    0
 -5  D2          1    2    2    0
 -5  D3          1    2    3    0
 -5  ALL         1    2    0    0    1ALL
 -1        23-3.84615E-08 0.00000E+00-4.80769E-05
 -3
    1PSTEP                         2           2           1          
  100CL  102 5.00000E-08           1                     1    2           1
 -4  DISP        4    1
 -5  D1          1    2    1    0
 -5  D2          1    2    2    0
 -5  D3          1    2    3    0
 -5  ALL         1    2    0    0    1ALL
 -1        23-1.02865E-07-1.28103E-21-1.37763E-04
 -3
    1PSTEP                         3           3           1          
  100CL  103 7.50000E-08           1                     1    3           1
 -4  DISP        4    1
 -5  D1          1    2    1    0
 -5  D2          1    2    2    0
 -5  D3          1    2    3    0
 -5  ALL         1    2    0    0    1ALL
 -1        23-1.24979E-07-1.75074E-20-2.57002E-04
 -3
    1PSTEP                         4           4           1          
  100CL  104 1.00000E-07           1                     1    4           1
 -4  DISP        4    1
 -5  D1          1    2    1    0
 -5  D2          1    2    2    0
 -5  D3          1    2    3    0
 -5  ALL         1    2    0    0    1ALL
 -1        23-2.70203E-08-2.22045E-20-3.89777E-04
 -3
    1PSTEP                         5           5           1          
  100CL  105 1.25000E-07           1                     1    5           1
 -4  DISP        4    1
 -5  D1          1    2    1    0
 -5  D2          1    2    2    0
 -5  D3          1    2    3    0
 -5  ALL         1    2    0    0    1ALL
 -1        23 2.22454E-07-3.97118E-20-5.18269E-04
 -3
    1PSTEP                         6           6           1          
  100CL  106 1.50000E-07           1                     1    6           1
 -4  DISP        4    1
 -5  D1          1    2    1    0
 -5  D2          1    2    2    0
 -5  D3          1    2    3    0
 -5  ALL         1    2    0    0    1ALL
 -1        23 5.92867E-07-4.86790E-20-6.25249E-04
 -3
    1PSTEP                         7           7           1          
  100CL  107 1.75000E-07           1                     1    7           1
 -4  DISP        4    1
 -5  D1          1    2    1    0
 -5  D2          1    2    2    0
 -5  D3          1    2    3    0
 -5  ALL         1    2    0    0    1ALL
 -1        23 1.03007E-06-6.40513E-21-6.96385E-04
 -3
    1PSTEP                         8           8           1          
  100CL  108 2.00000E-07           1                     1    8           1
 -4  DISP        4    1
 -5  D1          1    2    1    0
 -5  D2          1    2    2    0
 -5  D3          1    2    3    0
 -5  ALL         1    2    0    0    1ALL
 -1        23 1.51426E-06 2.56205E-20-7.22157E-04
 -3
    1PSTEP                         9           9           1          
  100CL  109 2.25000E-07           1                     1    9           1
 -4  DISP        4    1
 -5  D1          1    2    1    0
 -5  D2          1    2    2    0
 -5  D3          1    2    3    0
 -5  ALL         1    2    0    0    1ALL
 -1        23 2.08526E-06-4.82520E-20-6.99129E-04
 -3
    1PSTEP                        10          10           1          
  100CL  110 2.50000E-07           1                     1   10           1
 -4  DISP        4    1
 -5  D1          1    2    1    0
 -5  D2          1    2    2    0
 -5  D3          1    2    3    0
 -5  ALL         1    2    0    0    1ALL
 -1        23 2.81229E-06-1.56285E-19-6.30413E-04
 -3
    1PSTEP                        11          11           1          
  100CL  111 2.75000E-07           1                     1   11           1
 -4  DISP        4    1
 -5  D1          1    2    1    0
 -5  D2          1    2    2    0
 -5  D3          1    2    3    0
 -5  ALL         1    2    0    0    1ALL
 -1        23 3.73519E-06-1.90019E-19-5.25251E-04
 -3
    1PSTEP                        12          12           1          
  100CL  112 3.00000E-07           1                     1   12           1
 -4  DISP        4    1
 -5  D1          1    2    1    0
 -5  D2          1    2    2    0
 -5  D3          1    2    3    0
 -5  ALL         1    2    0    0    1ALL
 -1        23 4.82913E-06-1.29811E-19-3.97796E-04
 -3
    1PSTEP                        13          13           1          
  100CL  113 3.25000E-07           1                     1   13           1
 -4  DISP        4    1
 -5  D1          1    2    1    0
 -5  D2          1    2    2    0
 -5  D3          1    2    3    0
 -5  ALL         1    2    0    0    1ALL
 -1        23 6.02468E-06-9.77850E-20-2.65208E-04
 -3
    1PSTEP                        14          14           1          
  100CL  114 3.50000E-07           1                     1   14           1
 -4  DISP        4    1
 -5  D1          1    2    1    0
 -5  D2          1    2    2    0
 -5  D3          1    2    3    0
 -5  ALL         1    2    0    0    1ALL
 -1        23 7.26536E-06-1.31092E-19-1.45359E-04
 -3
    1PSTEP                        15          15           1          
  100CL  115 3.75000E-07           1                     1   15           1
 -4  DISP        4    1
 -5  D1          1    2    1    0
 -5  D2          1    2    2    0
 -5  D3          1    2    3    0
 -5  ALL         1    2    0    0    1ALL
 -1        23 8.55129E-06-1.75074E-19-5.44252E-05
 -3
    1PSTEP                        16          16           1          
  100CL  116 4.00000E-07           1                     1   16           1
 -4  DISP        4    1
 -5  D1          1    2    1    0
 -5  D2          1    2    2    0
 -5  D3          1    2    3    0
 -5  ALL         1    2    0    0    1ALL
 -1        23 9.93006E-06-1.88631E-19-4.70058E-06
 -3
    1PSTEP                        17          17           1          
  100CL  117 4.25000E-07           1                     1   17           1
 -4  DISP        4    1
 -5  D1          1    2    1    0
 -5  D2          1    2    2    0
 -5  D3          1    2    3    0
 -5  ALL         1    2    0    0    1ALL
 -1        23 1.15919E-05-1.53243E-19-2.28273E-06
 -3
    1PSTEP                        18          18           1          
  100CL  118 4.50000E-07           1                     1   18           1
 -4  DISP        4    1
 -5  D1          1    2    1    0
 -5  D2          1    2    2    0
 -5  D3          1    2    3    0
 -5  ALL         1    2    0    0    1ALL
 -1        23 1.35905E-05-1.22925E-19-4.75681E-05
 -3
    1PSTEP                        19          19           1          
  100CL  119 4.75000E-07           1                     1   19           1
 -4  DISP        4    1
 -5  D1          1    2    1    0
 -5  D2          1    2    2    0
 -5  D3          1    2    3    0
 -5  ALL         1    2    0    0    1ALL
 -1        23 1.58775E-05-1.77956E-19-1.34875E-04
 -3
    1PSTEP                        20          20           1          
  100CL  120 5.00000E-07           1                     1   20           1
 -4  DISP        4    1
 -5  D1          1    2    1    0
 -5  D2          1    2    2    0
 -5  D3          1    2    3    0
 -5  ALL         1    2    0    0    1ALL
 -1        23 1.83642E-05-3.14972E-19-2.52842E-04
 -3
    1PSTEP                        21          21           1          
  100CL  121 5.25000E-07           1                     1   21           1
 -4  DISP        4    1
 -5  D1          1    2    1    0
 -5  D2          1    2    2    0
 -5  D3          1    2    3    0
 -5  ALL         1    2    0    0    1ALL
 -1        23 2.09570E-05-4.44730E-19-3.85812E-04
 -3
    1PSTEP                        22          22           1          
  100CL  122 5.50000E-07           1                     1   22           1
 -4  DISP        4    1
 -5  D1          1    2    1    0
 -5  D2          1    2    2    0
 -5  D3          1    2    3    0
 -5  ALL         1    2    0    0    1ALL
 -1        23 2.36048E-05-5.07020E-19-5.15899E-04
 -3
    1PSTEP                        23          23           1          
  100CL  123 5.75000E-07           1                     1   23           1
 -4  DISP        4    1
 -5  D1          1    2    1    0
 -5  D2          1    2    2    0
 -5  D3          1    2    3    0
 -5  ALL         1    2    0    0    1ALL
 -1        23 2.63196E-05-5.06966E-19-6.25451E-04
 -3
    1PSTEP                        24          24           1          
  100CL  124 6.00000E-07           1                     1   24           1
 -4  DISP        4    1
 -5  D1          1    2    1    0
 -5  D2          1    2    2    0
 -5  D3          1    2    3    0
 -5  ALL         1    2    0    0    1ALL
 -1        23 2.91485E-05-5.31679E-19-6.99573E-04
 -3
    1PSTEP                        25          25           1          
  100CL  125 6.25000E-07           1                     1   25           1
 -4  DISP        4    1
 -5  D1          1    2    1    0
 -5  D2          1    2    2    0
 -5  D3          1    2    3    0
 -5  ALL         1    2    0    0    1ALL
 -1        23 3.21132E-05-6.25440E-19-7.28270E-04
 -3
    1PSTEP                        26          26           1          
  100CL  126 6.50000E-07           1                     1   26           1
 -4  DISP        4    1
 -5  D1          1    2    1    0
 -5  D2          1    2    2    0
 -5  D3          1    2    3    0
 -5  ALL         1    2    0    0    1ALL
 -1        23 3.51619E-05-7.51652E-19-7.07871E-04
 -3
    1PSTEP                        27          27           1          
  100CL  127 6.75000E-07           1                     1   27           1
 -4  DISP        4    1
 -5  D1          1    2    1    0
 -5  D2          1    2    2    0
 -5  D3          1    2    3    0
 -5  ALL         1    2    0    0    1ALL
 -1        23 3.81719E-05-8.10398E-19-6.41486E-04
 -3
    1PSTEP                        28          28           1          
  100CL  128 7.00000E-07           1                     1   28           1
 -4  DISP        4    1
 -5  D1          1    2    1    0
 -5  D2          1    2    2    0
 -5  D3          1    2    3    0
 -5  ALL         1    2    0    0    1ALL
 -1        23 4.10032E-05-7.23106E-19-5.38463E-04
 -3
    1PSTEP                        29          29           1          
  100CL  129 7.25000E-07           1                     1   29           1
 -4  DISP        4    1
 -5  D1          1    2    1    0
 -5  D2          1    2    2    0
 -5  D3          1    2    3    0
 -5  ALL         1    2    0    0    1ALL
 -1        23 4.35636E-05-5.58953E-19-4.12975E-04
 -3
    1PSTEP                        30          30           1          
  100CL  130 7.50000E-07           1                     1   30           1
 -4  DISP        4    1
 -5  D1          1    2    1    0
 -5  D2          1    2    2    0
 -5  D3          1    2    3    0
 -5  ALL         1    2    0    0    1ALL
 -1        23 4.58388E-05-3.40143E-19-2.82004E-04
 -3
    1PSTEP                        31          31           1          
  100CL  131 7.75000E-07           1                     1   31           1
 -4  DISP        4    1
 -5  D1          1    2    1    0
 -5  D2          1    2    2    0
 -5  D3          1    2    3    0
 -5  ALL         1    2    0    0    1ALL
 -1        23 4.78688E-05-7.00911E-20-1.63047E-04
 -3
    1PSTEP                        32          32           1          
  100CL  132 8.00000E-07           1                     1   32           1
 -4  DISP        4    1
 -5  D1          1    2    1    0
 -5  D2          1    2    2    0
 -5  D3          1    2    3    0
 -5  ALL         1    2    0    0    1ALL
 -1        23 4.96933E-05 2.13198E-19-7.18640E-05
 -3
    1PSTEP                        33          33           1          
  100CL  133 8.25000E-07           1                     1   33           1
 -4  DISP        4    1
 -5  D1          1    2    1    0
 -5  D2          1    2    2    0
 -5  D3          1    2    3    0
 -5  ALL         1    2    0    0    1ALL
 -1        23 5.13093E-05 4.35691E-19-2.05146E-05
 -3
    1PSTEP                        34          34           1          
  100CL  134 8.50000E-07           1                     1   34           1
 -4  DISP        4    1
 -5  D1          1    2    1    0
 -5  D2          1    2    2    0
 -5  D3          1    2    3    0
 -5  ALL         1    2    0    0    1ALL
 -1        23 5.34402E-05 6.67792E-19-1.38811E-05
 -3
    1PSTEP                        35          35           1          
  100CL  135 8.75000E-07           1                     1   35           1
 -4  DISP        4    1
 -5  D1          1    2    1    0
 -5  D2          1    2    2    0
 -5  D3          1    2    3    0
 -5  ALL         1    2    0    0    1ALL
 -1        23 5.59750E-05 8.93701E-19-5.30514E-05
 -3
    1PSTEP                        36          36           1          
  100CL  136 9.00000E-07           1                     1   36           1
 -4  DISP        4    1
 -5  D1          1    2    1    0
 -5  D2          1    2    2    0
 -5  D3          1    2    3    0
 -5  ALL         1    2    0    0    1ALL
 -1        23 5.86359E-05 1.13138E-18-1.34137E-04
 -3
    1PSTEP                        37          37           1          
  100CL  137 9.25000E-07           1                     1   37           1
 -4  DISP        4    1
 -5  D1          1    2    1    0
 -5  D2          1    2    2    0
 -5  D3          1    2    3    0
 -5  ALL         1    2    0    0    1ALL
 -1        23 6.12844E-05 1.42468E-18-2.47555E-04
 -3
    1PSTEP                        38          38           1          
  100CL  138 9.50000E-07           1                     1   38           1
 -4  DISP        4    1
 -5  D1          1    2    1    0
 -5  D2          1    2    2    0
 -5  D3          1    2    3    0
 -5  ALL         1    2    0    0    1ALL
 -1        23 6.39396E-05 1.75512E-18-3.78705E-04
 -3
    1PSTEP                        39          39           1          
  100CL  139 9.75000E-07           1                     1   39           1
 -4  DISP        4    1
 -5  D1          1    2    1    0
 -5  D2          1    2    2    0
 -5  D3          1    2    3    0
 -5  ALL         1    2    0    0    1ALL
 -1        23 6.66938E-05 1.98693E-18-5.09673E-04
 -3
    1PSTEP                        40          40           1          
  100CL  140 1.00000E-06           1                     1   40           1
 -4  DISP        4    1
 -5  D1          1    2    1    0
 -5  D2          1    2    2    0
 -5  D3          1    2    3    0
 -5  ALL         1    2    0    0    1ALL
 -1        23 6.96177E-05 2.02658E-18-6.21846E-04
 -3
    1PSTEP                        41          41           1          
  100CL  141 1.02500E-06           1                     1   41           1
 -4  DISP        4    1
 -5  D1          1    2    1    0
 -5  D2          1    2    2    0
 -5  D3          1    2    3    0
 -5  ALL         1    2    0    0    1ALL
 -1        23 7.27285E-05 1.89373E-18-6.98991E-04
 -3
    1PSTEP                        42          42           1          
  100CL  142 1.05000E-06           1                     1   42           1
 -4  DISP        4    1
 -5  D1          1    2    1    0
 -5  D2          1    2    2    0
 -5  D3          1    2    3    0
 -5  ALL         1    2    0    0    1ALL
 -1        23 7.60134E-05 1.74037E-18-7.30079E-04
 -3
    1PSTEP                        43          43           1          
  100CL  143 1.07500E-06           1                     1   43           1
 -4  DISP        4    1
 -5  D1          1    2    1    0
 -5  D2          1    2    2    0
 -5  D3          1    2    3    0
 -5  ALL         1    2    0    0    1ALL
 -1        23 7.94473E-05 1.76380E-18-7.11167E-04
 -3
    1PSTEP                        44          44           1          
  100CL  144 1.10000E-06           1                     1   44           1
 -4  DISP        4    1
 -5  D1          1    2    1    0
 -5  D2          1    2    2    0
 -5  D3          1    2    3    0
 -5  ALL         1    2    0    0    1ALL
 -1        23 8.29628E-05 1.96059E-18-6.45872E-04
 -3
    1PSTEP                        45          45           1          
  100CL  145 1.12500E-06           1                     1   45           1
 -4  DISP        4    1
 -5  D1          1    2    1    0
 -5  D2          1    2    2    0
 -5  D3          1    2    3    0
 -5  ALL         1    2    0    0    1ALL
 -1        23 8.64034E-05 2.04978E-18-5.44416E-04
 -3
    1PSTEP                        46          46           1          
  100CL  146 1.15000E-06           1                     1   46           1
 -4  DISP        4    1
 -5  D1          1    2    1    0
 -5  D2          1    2    2    0
 -5  D3          1    2    3    0
 -5  ALL         1    2    0    0    1ALL
 -1        23 8.95337E-05 1.89301E-18-4.21591E-04
 -3
    1PSTEP                        47          47           1          
  100CL  147 1.17500E-06           1                     1   47           1
 -4  DISP        4    1
 -5  D1          1    2    1    0
 -5  D2          1    2    2    0
 -5  D3          1    2    3    0
 -5  ALL         1    2    0    0    1ALL
 -1        23 9.21387E-05 1.49540E-18-2.94247E-04
 -3
    1PSTEP                        48          48           1          
  100CL  148 1.20000E-06           1                     1   48           1
 -4  DISP        4    1
 -5  D1          1    2    1    0
 -5  D2          1    2    2    0
 -5  D3          1    2    3    0
 -5  ALL         1    2    0    0    1ALL
 -1        23 9.41604E-05 1.14477E-18-1.78913E-04
 -3
    1PSTEP                        49          49           1          
  100CL  149 1.22500E-06           1                     1   49           1
 -4  DISP        4    1
 -5  D1          1    2    1    0
 -5  D2          1    2    2    0
 -5  D3          1    2    3    0
 -5  ALL         1    2    0    0    1ALL
 -1        23 9.57548E-05 1.00038E-18-8.99121E-05
 -3
    1PSTEP                        50          50           1          
  100CL  150 1.25000E-06           1                     1   50           1
 -4  DISP        4    1
 -5  D1          1    2    1    0
 -5  D2          1    2    2    0
 -5  D3          1    2    3    0
 -5  ALL         1    2    0    0    1ALL
 -1        23 9.72002E-05 1.01867E-18-3.80793E-05
 -3
    1PSTEP                        51          51           1          
  100CL  151 1.27500E-06           1                     1   51           1
 -4  DISP        4    1
 -5  D1          1    2    1    0
 -5  D2          1    2    2    0
 -5  D3          1    2    3    0
 -5  ALL         1    2    0    0    1ALL
 -1        23 9.94570E-05 9.76755E-19-2.80862E-05
 -3
    1PSTEP                        52          52           1          
  100CL  152 1.30000E-06           1                     1   52           1
 -4  DISP        4    1
 -5  D1          1    2    1    0
 -5  D2          1    2    2    0
 -5  D3          1    2    3    0
 -5  ALL         1    2    0    0    1ALL
 -1        23 1.02433E-04 8.39613E-19-6.15713E-05
 -3
    1PSTEP                        53          53           1          
  100CL  153 1.32500E-06           1                     1   53           1
 -4  DISP        4    1
 -5  D1          1    2    1    0
 -5  D2          1    2    2    0
 -5  D3          1    2    3    0
 -5  ALL         1    2    0    0    1ALL
 -1        23 1.05607E-04 6.77038E-19-1.36188E-04
 -3
    1PSTEP                        54          54           1          
  100CL  154 1.35000E-06           1                     1   54           1
 -4  DISP        4    1
 -5  D1          1    2    1    0
 -5  D2          1    2    2    0
 -5  D3          1    2    3    0
 -5  ALL         1    2    0    0    1ALL
 -1        23 1.08538E-04 5.77980E-19-2.44157E-04
 -3
    1PSTEP                        55          55           1          
  100CL  155 1.37500E-06           1                     1   55           1
 -4  DISP        4    1
 -5  D1          1    2    1    0
 -5  D2          1    2    2    0
 -5  D3          1    2    3    0
 -5  ALL         1    2    0    0    1ALL
 -1        23 1.11098E-04 5.22050E-19-3.72237E-04
 -3
    1PSTEP                        56          56           1          
  100CL  156 1.40000E-06           1                     1   56           1
 -4  DISP        4    1
 -5  D1          1    2    1    0
 -5  D2          1    2    2    0
 -5  D3          1    2    3    0
 -5  ALL         1    2    0    0    1ALL
 -1        23 1.13480E-04 4.17441E-19-5.02927E-04
 -3
    1PSTEP                        57          57           1          
  100CL  157 1.42500E-06           1                     1   57           1
 -4  DISP        4    1
 -5  D1          1    2    1    0
 -5  D2          1    2    2    0
 -5  D3          1    2    3    0
 -5  ALL         1    2    0    0    1ALL
 -1        23 1.16012E-04 2.70986E-19-6.17031E-04
 -3
    1PSTEP                        58          58           1          
  100CL  158 1.45000E-06           1                     1   58           1
 -4  DISP        4    1
 -5  D1          1    2    1    0
 -5  D2          1    2    2    0
 -5  D3          1    2    3    0
 -5  ALL         1    2    0    0    1ALL
 -1        23 1.18935E-04 2.27012E-19-6.97129E-04
 -3
    1PSTEP                        59          59           1          
  100CL  159 1.47500E-06           1                     1   59           1
 -4  DISP        4    1
 -5  D1          1    2    1    0
 -5  D2          1    2    2    0
 -5  D3          1    2    3    0
 -5  ALL         1    2    0    0    1ALL
 -1        23 1.22287E-04 3.52134E-19-7.31022E-04
 -3
    1PSTEP                        60          60           1          
  100CL  160 1.50000E-06           1                     1   60           1
 -4  DISP        4    1
 -5  D1          1    2    1    0
 -5  D2          1    2    2    0
 -5  D3          1    2    3    0
 -5  ALL         1    2    0    0    1ALL
 -1        23 1.25921E-04 6.05359E-19-7.14160E-04
 -3
    1PSTEP                        61          61           1          
  100CL  161 1.52500E-06           1                     1   61           1
 -4  DISP        4    1
 -5  D1          1    2    1    0
 -5  D2          1    2    2    0
 -5  D3          1    2    3    0
 -5  ALL         1    2    0    0    1ALL
 -1        23 1.29603E-04 8.33817E-19-6.50309E-04
 -3
    1PSTEP                        62          62           1          
  100CL  162 1.55000E-06           1                     1   62           1
 -4  DISP        4    1
 -5  D1          1    2    1    0
 -5  D2          1    2    2    0
 -5  D3          1    2    3    0
 -5  ALL         1    2    0    0    1ALL
 -1        23 1.33088E-04 8.04362E-19-5.50366E-04
 -3
    1PSTEP                        63          63           1          
  100CL  163 1.57500E-06           1                     1   63           1
 -4  DISP        4    1
 -5  D1          1    2    1    0
 -5  D2          1    2    2    0
 -5  D3          1    2    3    0
 -5  ALL         1    2    0    0    1ALL
 -1        23 1.36153E-04 6.21183E-19-4.29795E-04
 -3
    1PSTEP                        64          64           1          
  100CL  164 1.60000E-06           1                     1   64           1
 -4  DISP        4    1
 -5  D1          1    2    1    0
 -5  D2          1    2    2    0
 -5  D3          1    2    3    0
 -5  ALL         1    2    0    0    1ALL
 -1        23 1.38633E-04 6.35710E-19-3.05588E-04
 -3
    1PSTEP                        65          65           1          
  100CL  165 1.62500E-06           1                     1   65           1
 -4  DISP        4    1
 -5  D1          1    2    1    0
 -5  D2          1    2    2    0
 -5  D3          1    2    3    0
 -5  ALL         1    2    0    0    1ALL
 -1        23 1.40485E-04 9.78820E-19-1.93637E-04
 -3
    1PSTEP                        66          66           1          
  100CL  166 1.65000E-06           1                     1   66           1
 -4  DISP        4    1
 -5  D1          1    2    1    0
 -5  D2          1    2    2    0
 -5  D3          1    2    3    0
 -5  ALL         1    2    0    0    1ALL
 -1        23 1.41844E-04 1.42633E-18-1.07042E-04
 -3
    1PSTEP                        67          67           1          
  100CL  167 1.67500E-06           1                     1   67           1
 -4  DISP        4    1
 -5  D1          1    2    1    0
 -5  D2          1    2    2    0
 -5  D3          1    2    3    0
 -5  ALL         1    2    0    0    1ALL
 -1        23 1.42999E-04 1.71041E-18-5.53761E-05
 -3
    1PSTEP                        68          68           1          
  100CL  168 1.70000E-06           1                     1   68           1
 -4  DISP        4    1
 -5  D1          1    2    1    0
 -5  D2          1    2    2    0
 -5  D3          1    2    3    0
 -5  ALL         1    2    0    0    1ALL
 -1        23 1.45004E-04 1.85315E-18-4.27189E-05
 -3
    1PSTEP                        69          69           1          
  100CL  169 1.72500E-06           1                     1   69           1
 -4  DISP        4    1
 -5  D1          1    2    1    0
 -5  D2          1    2    2    0
 -5  D3          1    2    3    0
 -5  ALL         1    2    0    0    1ALL
 -1        23 1.47825E-04 2.06741E-18-7.11457E-05
 -3
    1PSTEP                        70          70           1          
  100CL  170 1.75000E-06           1                     1   70           1
 -4  DISP        4    1
 -5  D1          1    2    1    0
 -5  D2          1    2    2    0
 -5  D3          1    2    3    0
 -5  ALL         1    2    0    0    1ALL
 -1        23 1.51435E-04 2.40749E-18-1.36005E-04
 -3
    1PSTEP                        71          71           1          
  100CL  171 1.77500E-06           1                     1   71           1
 -4  DISP        4    1
 -5  D1          1    2    1    0
 -5  D2          1    2    2    0
 -5  D3          1    2    3    0
 -5  ALL         1    2    0    0    1ALL
 -1        23 1.54667E-04 2.70124E-18-2.34011E-04
 -3
    1PSTEP                        72          72           1          
  100CL  172 1.80000E-06           1                     1   72           1
 -4  DISP        4    1
 -5  D1          1    2    1    0
 -5  D2          1    2    2    0
 -5  D3          1    2    3    0
 -5  ALL         1    2    0    0    1ALL
 -1        23 1.56376E-04 2.78448E-18-3.57418E-04
 -3
    1PSTEP                        73          73           1          
  100CL  173 1.82500E-06           1                     1   73           1
 -4  DISP        4    1
 -5  D1          1    2    1    0
 -5  D2          1    2    2    0
 -5  D3          1    2    3    0
 -5  ALL         1    2    0    0    1ALL
 -1        23 1.56127E-04 2.72425E-18-4.92365E-04
 -3
    1PSTEP                        74          74           1          
  100CL  174 1.85000E-06           1                     1   74           1
 -4  DISP        4    1
 -5  D1          1    2    1    0
 -5  D2          1    2    2    0
 -5  D3          1    2    3    0
 -5  ALL         1    2    0    0    1ALL
 -1        23 1.54415E-04 2.83140E-18-6.19404E-04
 -3
    1PSTEP                        75          75           1          
  100CL  175 1.87500E-06           1                     1   75           1
 -4  DISP        4    1
 -5  D1          1    2    1    0
 -5  D2          1    2    2    0
 -5  D3          1    2    3    0
 -5  ALL         1    2    0    0    1ALL
 -1        23 1.52318E-04 3.36470E-18-7.16808E-04
 -3
    1PSTEP                        76          76           1          
  100CL  176 1.90000E-06           1                     1   76           1
 -4  DISP        4    1
 -5  D1          1    2    1    0
 -5  D2          1    2    2    0
 -5  D3          1    2    3    0
 -5  ALL         1    2    0    0    1ALL