    1C
    1UUSER
    1UDATE              26.july.2016        
    1UTIME              21:29:54
    1UHOST
    1UPGM               CalculiX
    1UDIR
    1UDBN
    2C                                                                   1
 -1         1-1.00000E+00 0.00000E+00 0.00000E+00
 -1         2-9.80785E-01 1.95090E-01 0.00000E+00
 -1         3-9.80785E-01 1.95090E-01 1.00000E-01
 -1         4-1.00000E+00 0.00000E+00 1.00000E-01
 -1         5-8.75000E-01 0.00000E+00 0.00000E+00
 -1         6-8.58187E-01 1.70704E-01-2.22045E-16
 -1         7-8.58187E-01 1.70704E-01 1.00000E-01
 -1         8-8.75000E-01 0.00000E+00 1.00000E-01
 -1         9-7.50000E-01 0.00000E+00 0.00000E+00
 -1        10-7.35589E-01 1.46318E-01 5.55112E-17
 -1        11-7.35589E-01 1.46318E-01 1.00000E-01
 -1        12-7.50000E-01 0.00000E+00 1.00000E-01
 -1        13-6.25000E-01 0.00000E+00 0.00000E+00
 -1        14-6.12991E-01 1.21931E-01 0.00000E+00
 -1        15-6.12991E-01 1.21931E-01 1.00000E-01
 -1        16-6.25000E-01 0.00000E+00 1.00000E-01
 -1        17-5.00000E-01 0.00000E+00 0.00000E+00
 -1        18-4.90393E-01 9.75452E-02 0.00000E+00
 -1        19-4.90393E-01 9.75452E-02 1.00000E-01
 -1        20-5.00000E-01 0.00000E+00 1.00000E-01
 -1        21-9.23880E-01 3.82683E-01 0.00000E+00
 -1        22-9.23880E-01 3.82683E-01 1.00000E-01
 -1        23-8.08395E-01 3.34848E-01 0.00000E+00
 -1        24-8.08395E-01 3.34848E-01 1.00000E-01
 -1        25-6.92910E-01 2.87013E-01 1.11022E-16
 -1        26-6.92910E-01 2.87013E-01 1.00000E-01
 -1        27-5.77425E-01 2.39177E-01 1.11022E-16
 -1        28-5.77425E-01 2.39177E-01 1.00000E-01
 -1        29-4.61940E-01 1.91342E-01 0.00000E+00
 -1        30-4.61940E-01 1.91342E-01 1.00000E-01
 -1        31-8.31470E-01 5.55570E-01 0.00000E+00
 -1        32-8.31470E-01 5.55570E-01 1.00000E-01
 -1        33-7.27536E-01 4.86124E-01 0.00000E+00
 -1        34-7.27536E-01 4.86124E-01 1.00000E-01
 -1        35-6.23602E-01 4.16678E-01 0.00000E+00
 -1        36-6.23602E-01 4.16678E-01 1.00000E-01
 -1        37-5.19669E-01 3.47231E-01 0.00000E+00
 -1        38-5.19669E-01 3.47231E-01 1.00000E-01
 -1        39-4.15735E-01 2.77785E-01 0.00000E+00
 -1        40-4.15735E-01 2.77785E-01 1.00000E-01
 -1        41-7.07107E-01 7.07107E-01 0.00000E+00
 -1        42-7.07107E-01 7.07107E-01 1.00000E-01
 -1        43-6.18718E-01 6.18718E-01-1.11022E-16
 -1        44-6.18718E-01 6.18718E-01 1.00000E-01
 -1        45-5.30330E-01 5.30330E-01 5.55112E-17
 -1        46-5.30330E-01 5.30330E-01 1.00000E-01
 -1        47-4.41942E-01 4.41942E-01-2.22045E-16
 -1        48-4.41942E-01 4.41942E-01 1.00000E-01
 -1        49-3.53553E-01 3.53553E-01 0.00000E+00
 -1        50-3.53553E-01 3.53553E-01 1.00000E-01
 -3
    3C                                                                   1
 -1         1    1    0AIR  
 -2         1         2         3         4         5         6         7         8
 -1         2    1    0AIR  
 -2         5         6         7         8         9        10        11        12
 -1         3    1    0AIR  
 -2         9        10        11        12        13        14        15        16
 -1         4    1    0AIR  
 -2        13        14        15        16        17        18        19        20
 -1         5    1    0AIR  
 -2         2        21        22         3         6        23        24         7
 -1         6    1    0AIR  
 -2         6        23        24         7        10        25        26        11
 -1         7    1    0AIR  
 -2        10        25        26        11        14        27        28        15
 -1         8    1    0AIR  
 -2        14        27        28        15        18        29        30        19
 -1         9    1    0AIR  
 -2        21        31        32        22        23        33        34        24
 -1        10    1    0AIR  
 -2        23        33        34        24        25        35        36        26
 -1        11    1    0AIR  
 -2        25        35        36        26        27        37        38        28
 -1        12    1    0AIR  
 -2        27        37        38        28        29        39        40        30
 -1        13    1    0AIR  
 -2        31        41        42        32        33        43        44        34
 -1        14    1    0AIR  
 -2        33        43        44        34        35        45        46        36
 -1        15    1    0AIR  
 -2        35        45        46        36        37        47        48        38
 -1        16    1    0AIR  
 -2        37        47        48        38        39        49        50        40
 -3
    1PSTEP                         1                                                                                                
  100CL  101 0.30023E+01          50                     3    1           1                                                         
 -4  V3DF        4    1                                                                                                             
 -5  V1          1    2    1    0                                                                                                   
 -5  V2          1    2    2    0                                                                                                   
 -5  V3          1    2    3    0                                                                                                   
 -5  ALL         1    2    0    0    1ALL                                                                                           
 -1         1-9.80171E-02-9.95185E-01 0.00000E+00
 -1         2-1.94151E-01-9.76063E-01 0.00000E+00
 -1         3-1.94151E-01-9.76063E-01 0.00000E+00
 -1         4-9.80171E-02-9.95185E-01 0.00000E+00
 -1         5-6.94991E-02-1.12405E+00 5.22661E-17
 -1         6-2.22475E-01-1.10200E+00-2.50871E-17
 -1         7-2.22475E-01-1.10200E+00-2.50871E-17
 -1         8-6.94991E-02-1.12405E+00 5.22661E-17
 -1         9-8.15792E-02-1.30307E+00 1.26603E-16
 -1        10-2.58795E-01-1.27739E+00 3.46701E-17
 -1        11-2.58795E-01-1.27739E+00 3.46701E-17
 -1        12-8.15792E-02-1.30307E+00 1.26603E-16
 -1        13-9.34651E-02-1.56316E+00 2.11470E-16
 -1        14-3.06033E-01-1.53298E+00 1.29766E-16
 -1        15-3.06033E-01-1.53298E+00 1.29766E-16
 -1        16-9.34651E-02-1.56316E+00 2.11470E-16
 -1        17-1.96034E-01-1.99037E+00 0.00000E+00
 -1        18-3.88302E-01-1.95213E+00 0.00000E+00
 -1        19-3.88302E-01-1.95213E+00 0.00000E+00
 -1        20-1.96034E-01-1.99037E+00 0.00000E+00
 -1        21-3.80841E-01-9.19431E-01 0.00000E+00
 -1        22-3.80841E-01-9.19431E-01 0.00000E+00
 -1        23-4.33336E-01-1.03759E+00-9.09465E-17
 -1        24-4.33336E-01-1.03759E+00-9.09465E-17
 -1        25-5.03099E-01-1.20242E+00-8.41933E-17
 -1        26-5.03099E-01-1.20242E+00-8.41933E-17
 -1        27-5.99228E-01-1.44380E+00-1.00976E-16
 -1        28-5.99228E-01-1.44380E+00-1.00976E-16
 -1        29-7.61681E-01-1.83886E+00 0.00000E+00
 -1        30-7.61681E-01-1.83886E+00 0.00000E+00
 -1        31-5.52895E-01-8.27466E-01 0.00000E+00
 -1        32-5.52895E-01-8.27466E-01 0.00000E+00
 -1        33-6.27358E-01-9.33233E-01-5.51433E-19
 -1        34-6.27358E-01-9.33233E-01-5.51433E-19
 -1        35-7.27974E-01-1.08123E+00-2.02667E-18
 -1        36-7.27974E-01-1.08123E+00-2.02667E-18
 -1        37-8.69358E-01-1.29917E+00-8.71419E-17
 -1        38-8.69358E-01-1.29917E+00-8.71419E-17
 -1        39-1.10579E+00-1.65493E+00 0.00000E+00
 -1        40-1.10579E+00-1.65493E+00 0.00000E+00
 -1        41-6.34393E-01-7.73010E-01 0.00000E+00
 -1        42-6.34393E-01-7.73010E-01 0.00000E+00
 -1        43-7.50403E-01-8.39976E-01 7.83500E-17
 -1        44-7.50403E-01-8.39976E-01 7.83500E-17
 -1        45-8.70581E-01-9.73074E-01 1.07071E-16
 -1        46-8.70581E-01-9.73074E-01 1.07071E-16
 -1        47-1.04079E+00-1.16999E+00 7.57282E-17
 -1        48-1.04079E+00-1.16999E+00 7.57282E-17
 -1        49-1.26879E+00-1.54602E+00 0.00000E+00
 -1        50-1.26879E+00-1.54602E+00 0.00000E+00
 -3
    1PSTEP                         1                                                                                                
  100CL  101 0.30023E+01          50                     3    1           1                                                         
 -4  PS3DF       1    1                                                                                                             
 -5  PS          1    1    0    0                                                                                                   
 -1         1 2.70958E+00
 -1         2 2.70517E+00
 -1         3 2.70517E+00
 -1         4 2.70958E+00
 -1         5 1.73459E+00
 -1         6 1.73337E+00
 -1         7 1.73337E+00
 -1         8 1.73459E+00
 -1         9 1.00763E+00
 -1        10 1.00830E+00
 -1        11 1.00830E+00
 -1        12 1.00763E+00
 -1        13 5.11454E-01
 -1        14 5.11655E-01
 -1        15 5.11655E-01
 -1        16 5.11454E-01
 -1        17 4.79737E-04
 -1        18-3.26893E-03
 -1        19-3.26893E-03
 -1        20 4.79737E-04
 -1        21 2.70319E+00
 -1        22 2.70319E+00
 -1        23 1.73255E+00
 -1        24 1.73255E+00
 -1        25 1.00820E+00
 -1        26 1.00820E+00
 -1        27 5.11748E-01
 -1        28 5.11748E-01
 -1        29-3.08136E-03
 -1        30-3.08136E-03
 -1        31 2.70544E+00
 -1        32 2.70544E+00
 -1        33 1.73373E+00
 -1        34 1.73373E+00
 -1        35 1.00846E+00
 -1        36 1.00846E+00
 -1        37 5.11578E-01
 -1        38 5.11578E-01
 -1        39-3.33265E-03
 -1        40-3.33265E-03
 -1        41 2.70528E+00
 -1        42 2.70528E+00
 -1        43 1.73452E+00
 -1        44 1.73452E+00
 -1        45 1.00948E+00
 -1        46 1.00948E+00
 -1        47 5.11517E-01
 -1        48 5.11517E-01
 -1        49-7.52018E-03
 -1        50-7.52018E-03
 -3
    1PSTEP                         1                                                                                                
  100CL  101 0.30023E+01          50                     3    1           1                                                         
 -4  TS3DF       1    1                                                                                                             
 -5  TS          1    1    0    0                                                                                                   
 -1         1 1.00000E+00
 -1         2 1.00000E+00
 -1         3 1.00000E+00
 -1         4 1.00000E+00
 -1         5 1.26339E+00
 -1         6 1.26341E+00
 -1         7 1.26341E+00
 -1         8 1.26339E+00
 -1         9 1.45792E+00
 -1        10 1.45792E+00
 -1        11 1.45792E+00
 -1        12 1.45792E+00
 -1        13 1.47561E+00
 -1        14 1.47561E+00
 -1        15 1.47561E+00
 -1        16 1.47561E+00
 -1        17 1.00000E+00
 -1        18 1.00000E+00
 -1        19 1.00000E+00
 -1        20 1.00000E+00
 -1        21 1.00000E+00
 -1        22 1.00000E+00
 -1        23 1.26350E+00
 -1        24 1.26350E+00
 -1        25 1.45791E+00
 -1        26 1.45791E+00
 -1        27 1.47556E+00
 -1        28 1.47556E+00
 -1        29 1.00000E+00
 -1        30 1.00000E+00
 -1        31 1.00000E+00
 -1        32 1.00000E+00
 -1        33 1.26351E+00
 -1        34 1.26351E+00
 -1        35 1.45791E+00
 -1        36 1.45791E+00
 -1        37 1.47555E+00
 -1        38 1.47555E+00
 -1        39 1.00000E+00
 -1        40 1.00000E+00
 -1        41 1.00000E+00
 -1        42 1.00000E+00
 -1        43 1.26345E+00
 -1        44 1.26345E+00
 -1        45 1.45790E+00
 -1        46 1.45790E+00
 -1        47 1.47557E+00
 -1        48 1.47557E+00
 -1        49 1.00000E+00
 -1        50 1.00000E+00
 -3
