    1C
    1UUSER
    1UDATE              26.july.2016        
    1UTIME              21:03:26
    1UHOST
    1UPGM               CalculiX
    1UDIR
    1UDBN
    2C                                                                   1
 -1         1-1.00000E+00 0.00000E+00 0.00000E+00
 -1         2-9.80785E-01 1.95090E-01 0.00000E+00
 -1         3-9.80785E-01 1.95090E-01 1.00000E-01
 -1         4-1.00000E+00 0.00000E+00 1.00000E-01
 -1         5-8.75000E-01 0.00000E+00 0.00000E+00
 -1         6-8.58187E-01 1.70704E-01-2.22045E-16
 -1         7-8.58187E-01 1.70704E-01 1.00000E-01
 -1         8-8.75000E-01 0.00000E+00 1.00000E-01
 -1         9-7.50000E-01 0.00000E+00 0.00000E+00
 -1        10-7.35589E-01 1.46318E-01 5.55112E-17
 -1        11-7.35589E-01 1.46318E-01 1.00000E-01
 -1        12-7.50000E-01 0.00000E+00 1.00000E-01
 -1        13-6.25000E-01 0.00000E+00 0.00000E+00
 -1        14-6.12991E-01 1.21931E-01 0.00000E+00
 -1        15-6.12991E-01 1.21931E-01 1.00000E-01
 -1        16-6.25000E-01 0.00000E+00 1.00000E-01
 -1        17-5.00000E-01 0.00000E+00 0.00000E+00
 -1        18-4.90393E-01 9.75452E-02 0.00000E+00
 -1        19-4.90393E-01 9.75452E-02 1.00000E-01
 -1        20-5.00000E-01 0.00000E+00 1.00000E-01
 -1        21-9.23880E-01 3.82683E-01 0.00000E+00
 -1        22-9.23880E-01 3.82683E-01 1.00000E-01
 -1        23-8.08395E-01 3.34848E-01 0.00000E+00
 -1        24-8.08395E-01 3.34848E-01 1.00000E-01
 -1        25-6.92910E-01 2.87013E-01 1.11022E-16
 -1        26-6.92910E-01 2.87013E-01 1.00000E-01
 -1        27-5.77425E-01 2.39177E-01 1.11022E-16
 -1        28-5.77425E-01 2.39177E-01 1.00000E-01
 -1        29-4.61940E-01 1.91342E-01 0.00000E+00
 -1        30-4.61940E-01 1.91342E-01 1.00000E-01
 -1        31-8.31470E-01 5.55570E-01 0.00000E+00
 -1        32-8.31470E-01 5.55570E-01 1.00000E-01
 -1        33-7.27536E-01 4.86124E-01 0.00000E+00
 -1        34-7.27536E-01 4.86124E-01 1.00000E-01
 -1        35-6.23602E-01 4.16678E-01 0.00000E+00
 -1        36-6.23602E-01 4.16678E-01 1.00000E-01
 -1        37-5.19669E-01 3.47231E-01 0.00000E+00
 -1        38-5.19669E-01 3.47231E-01 1.00000E-01
 -1        39-4.15735E-01 2.77785E-01 0.00000E+00
 -1        40-4.15735E-01 2.77785E-01 1.00000E-01
 -1        41-7.07107E-01 7.07107E-01 0.00000E+00
 -1        42-7.07107E-01 7.07107E-01 1.00000E-01
 -1        43-6.18718E-01 6.18718E-01-1.11022E-16
 -1        44-6.18718E-01 6.18718E-01 1.00000E-01
 -1        45-5.30330E-01 5.30330E-01 5.55112E-17
 -1        46-5.30330E-01 5.30330E-01 1.00000E-01
 -1        47-4.41942E-01 4.41942E-01-2.22045E-16
 -1        48-4.41942E-01 4.41942E-01 1.00000E-01
 -1        49-3.53553E-01 3.53553E-01 0.00000E+00
 -1        50-3.53553E-01 3.53553E-01 1.00000E-01
 -3
    3C                                                                   1
 -1         1    1    0WATER
 -2         1         2         3         4         5         6         7         8
 -1         2    1    0WATER
 -2         5         6         7         8         9        10        11        12
 -1         3    1    0WATER
 -2         9        10        11        12        13        14        15        16
 -1         4    1    0WATER
 -2        13        14        15        16        17        18        19        20
 -1         5    1    0WATER
 -2         2        21        22         3         6        23        24         7
 -1         6    1    0WATER
 -2         6        23        24         7        10        25        26        11
 -1         7    1    0WATER
 -2        10        25        26        11        14        27        28        15
 -1         8    1    0WATER
 -2        14        27        28        15        18        29        30        19
 -1         9    1    0WATER
 -2        21        31        32        22        23        33        34        24
 -1        10    1    0WATER
 -2        23        33        34        24        25        35        36        26
 -1        11    1    0WATER
 -2        25        35        36        26        27        37        38        28
 -1        12    1    0WATER
 -2        27        37        38        28        29        39        40        30
 -1        13    1    0WATER
 -2        31        41        42        32        33        43        44        34
 -1        14    1    0WATER
 -2        33        43        44        34        35        45        46        36
 -1        15    1    0WATER
 -2        35        45        46        36        37        47        48        38
 -1        16    1    0WATER
 -2        37        47        48        38        39        49        50        40
 -3
    1PSTEP                         1                                                                                                
  100CL  101 0.31704E+00          50                     3    1           1                                                         
 -4  V3DF        4    1                                                                                                             
 -5  V1          1    2    1    0                                                                                                   
 -5  V2          1    2    2    0                                                                                                   
 -5  V3          1    2    3    0                                                                                                   
 -5  ALL         1    2    0    0    1ALL                                                                                           
 -1         1-9.80171E-02-9.95185E-01 0.00000E+00
 -1         2-1.94151E-01-9.76063E-01 0.00000E+00
 -1         3-1.94151E-01-9.76063E-01 0.00000E+00
 -1         4-9.80171E-02-9.95185E-01 0.00000E+00
 -1         5-6.68359E-02-1.13602E+00-2.91590E-18
 -1         6-2.21333E-01-1.11424E+00 4.97707E-18
 -1         7-2.21333E-01-1.11424E+00 4.97707E-18
 -1         8-6.68359E-02-1.13602E+00-2.91590E-18
 -1         9-7.76200E-02-1.32454E+00 1.01171E-17
 -1        10-2.57758E-01-1.29918E+00 1.47623E-17
 -1        11-2.57758E-01-1.29918E+00 1.47623E-17
 -1        12-7.76200E-02-1.32454E+00 1.01171E-17
 -1        13-9.53455E-02-1.58959E+00 9.46426E-18
 -1        14-3.11507E-01-1.55885E+00 1.60080E-17
 -1        15-3.11507E-01-1.55885E+00 1.60080E-17
 -1        16-9.53455E-02-1.58959E+00 9.46426E-18
 -1        17-1.96034E-01-1.99037E+00 0.00000E+00
 -1        18-3.88302E-01-1.95213E+00 0.00000E+00
 -1        19-3.88302E-01-1.95213E+00 0.00000E+00
 -1        20-1.96034E-01-1.99037E+00 0.00000E+00
 -1        21-3.80841E-01-9.19431E-01 0.00000E+00
 -1        22-3.80841E-01-9.19431E-01 0.00000E+00
 -1        23-4.34457E-01-1.04965E+00-9.88688E-18
 -1        24-4.34457E-01-1.04965E+00-9.88688E-18
 -1        25-5.06262E-01-1.22393E+00 1.28305E-17
 -1        26-5.06262E-01-1.22393E+00 1.28305E-17
 -1        27-6.09638E-01-1.46813E+00 2.01095E-17
 -1        28-6.09638E-01-1.46813E+00 2.01095E-17
 -1        29-7.61681E-01-1.83886E+00 0.00000E+00
 -1        30-7.61681E-01-1.83886E+00 0.00000E+00
 -1        31-5.52895E-01-8.27466E-01 0.00000E+00
 -1        32-5.52895E-01-8.27466E-01 0.00000E+00
 -1        33-6.30884E-01-9.44719E-01-2.46939E-17
 -1        34-6.30884E-01-9.44719E-01-2.46939E-17
 -1        35-7.35310E-01-1.10164E+00 6.39656E-18
 -1        36-7.35310E-01-1.10164E+00 6.39656E-18
 -1        37-8.84341E-01-1.32098E+00 1.26971E-17
 -1        38-8.84341E-01-1.32098E+00 1.26971E-17
 -1        39-1.10579E+00-1.65493E+00 0.00000E+00
 -1        40-1.10579E+00-1.65493E+00 0.00000E+00
 -1        41-6.34393E-01-7.73010E-01 0.00000E+00
 -1        42-6.34393E-01-7.73010E-01 0.00000E+00
 -1        43-7.55586E-01-8.50944E-01-1.67441E-17
 -1        44-7.55586E-01-8.50944E-01-1.67441E-17
 -1        45-8.80728E-01-9.92341E-01 6.53964E-18
 -1        46-8.80728E-01-9.92341E-01 6.53964E-18
 -1        47-1.05869E+00-1.18956E+00 7.72683E-18
 -1        48-1.05869E+00-1.18956E+00 7.72683E-18
 -1        49-1.26879E+00-1.54602E+00 0.00000E+00
 -1        50-1.26879E+00-1.54602E+00 0.00000E+00
 -3
    1PSTEP                         1                                                                                                
  100CL  101 0.31704E+00          50                     3    1           1                                                         
 -4  PS3DF       1    1                                                                                                             
 -5  PS          1    1    0    0                                                                                                   
 -1         1 1.12604E+00
 -1         2 1.12604E+00
 -1         3 1.12604E+00
 -1         4 1.12604E+00
 -1         5 9.70384E-01
 -1         6 9.70388E-01
 -1         7 9.70388E-01
 -1         8 9.70384E-01
 -1         9 7.58542E-01
 -1        10 7.58546E-01
 -1        11 7.58546E-01
 -1        12 7.58542E-01
 -1        13 3.12270E-01
 -1        14 3.12274E-01
 -1        15 3.12274E-01
 -1        16 3.12270E-01
 -1        17-3.12237E-01
 -1        18-3.12237E-01
 -1        19-3.12237E-01
 -1        20-3.12237E-01
 -1        21 1.12602E+00
 -1        22 1.12602E+00
 -1        23 9.70372E-01
 -1        24 9.70372E-01
 -1        25 7.58529E-01
 -1        26 7.58529E-01
 -1        27 3.12259E-01
 -1        28 3.12259E-01
 -1        29-3.12247E-01
 -1        30-3.12247E-01
 -1        31 1.12601E+00
 -1        32 1.12601E+00
 -1        33 9.70358E-01
 -1        34 9.70358E-01
 -1        35 7.58515E-01
 -1        36 7.58515E-01
 -1        37 3.12247E-01
 -1        38 3.12247E-01
 -1        39-3.12253E-01
 -1        40-3.12253E-01
 -1        41 1.12601E+00
 -1        42 1.12601E+00
 -1        43 9.70364E-01
 -1        44 9.70364E-01
 -1        45 7.58522E-01
 -1        46 7.58522E-01
 -1        47 3.12255E-01
 -1        48 3.12255E-01
 -1        49-3.12250E-01
 -1        50-3.12250E-01
 -3
    1PSTEP                         1                                                                                                
  100CL  101 0.31704E+00          50                     3    1           1                                                         
 -4  TS3DF       1    1                                                                                                             
 -5  TS          1    1    0    0                                                                                                   
 -1         1 1.00000E+00
 -1         2 1.00000E+00
 -1         3 1.00000E+00
 -1         4 1.00000E+00
 -1         5 1.27166E+00
 -1         6 1.27166E+00
 -1         7 1.27166E+00
 -1         8 1.27166E+00
 -1         9 1.46865E+00
 -1        10 1.46865E+00
 -1        11 1.46865E+00
 -1        12 1.46865E+00
 -1        13 1.47803E+00
 -1        14 1.47803E+00
 -1        15 1.47803E+00
 -1        16 1.47803E+00
 -1        17 1.00000E+00
 -1        18 1.00000E+00
 -1        19 1.00000E+00
 -1        20 1.00000E+00
 -1        21 1.00000E+00
 -1        22 1.00000E+00
 -1        23 1.27166E+00
 -1        24 1.27166E+00
 -1        25 1.46865E+00
 -1        26 1.46865E+00
 -1        27 1.47803E+00
 -1        28 1.47803E+00
 -1        29 1.00000E+00
 -1        30 1.00000E+00
 -1        31 1.00000E+00
 -1        32 1.00000E+00
 -1        33 1.27166E+00
 -1        34 1.27166E+00
 -1        35 1.46865E+00
 -1        36 1.46865E+00
 -1        37 1.47803E+00
 -1        38 1.47803E+00
 -1        39 1.00000E+00
 -1        40 1.00000E+00
 -1        41 1.00000E+00
 -1        42 1.00000E+00
 -1        43 1.27166E+00
 -1        44 1.27166E+00
 -1        45 1.46865E+00
 -1        46 1.46865E+00
 -1        47 1.47803E+00
 -1        48 1.47803E+00
 -1        49 1.00000E+00
 -1        50 1.00000E+00
 -3
