    1C
    1C
    1UUSER
    1UDATE              28.july.2021        
    1UTIME              22:28:51
    1UHOST
    1UPGM               CalculiX
    1UDIR
    1UDBN
    2C                                                                   1
 -1         1 1.00000E+00 0.00000E+00-1.00000E+00
 -1         2 8.75000E-01 0.00000E+00-1.00000E+00
 -1         3 8.58187E-01-1.70704E-01-1.00000E+00
 -1         4 9.80785E-01-1.95090E-01-1.00000E+00
 -1         5 1.00000E+00 0.00000E+00 0.00000E+00
 -1         6 8.75000E-01 0.00000E+00 0.00000E+00
 -1         7 8.58187E-01-1.70704E-01 0.00000E+00
 -1         8 9.80785E-01-1.95090E-01 0.00000E+00
 -1         9 8.08395E-01-3.34848E-01-1.00000E+00
 -1        10 9.23880E-01-3.82683E-01-1.00000E+00
 -1        11 8.08395E-01-3.34848E-01 0.00000E+00
 -1        12 9.23880E-01-3.82683E-01 0.00000E+00
 -1        13 7.27536E-01-4.86124E-01-1.00000E+00
 -1        14 8.31470E-01-5.55570E-01-1.00000E+00
 -1        15 7.27536E-01-4.86124E-01 0.00000E+00
 -1        16 8.31470E-01-5.55570E-01 0.00000E+00
 -1        17 7.50000E-01 0.00000E+00-1.00000E+00
 -1        18 7.35589E-01-1.46318E-01-1.00000E+00
 -1        19 7.50000E-01 0.00000E+00 0.00000E+00
 -1        20 7.35589E-01-1.46318E-01 0.00000E+00
 -1        21 6.92910E-01-2.87013E-01-1.00000E+00
 -1        22 6.92910E-01-2.87013E-01 0.00000E+00
 -1        23 6.23602E-01-4.16678E-01-1.00000E+00
 -1        24 6.23602E-01-4.16678E-01 0.00000E+00
 -1        25 6.25000E-01 0.00000E+00-1.00000E+00
 -1        26 6.12991E-01-1.21931E-01-1.00000E+00
 -1        27 6.25000E-01 0.00000E+00 0.00000E+00
 -1        28 6.12991E-01-1.21931E-01 0.00000E+00
 -1        29 5.77425E-01-2.39177E-01-1.00000E+00
 -1        30 5.77425E-01-2.39177E-01 0.00000E+00
 -1        31 5.19669E-01-3.47231E-01-1.00000E+00
 -1        32 5.19669E-01-3.47231E-01 0.00000E+00
 -1        33 5.00000E-01 0.00000E+00-1.00000E+00
 -1        34 4.90393E-01-9.75452E-02-1.00000E+00
 -1        35 5.00000E-01 0.00000E+00 0.00000E+00
 -1        36 4.90393E-01-9.75452E-02 0.00000E+00
 -1        37 4.61940E-01-1.91342E-01-1.00000E+00
 -1        38 4.61940E-01-1.91342E-01 0.00000E+00
 -1        39 4.15735E-01-2.77785E-01-1.00000E+00
 -1        40 4.15735E-01-2.77785E-01 0.00000E+00
 -3
    3C                                                                   1
 -1         1    1    0WATER
 -2         1         2         3         4         5         6         7         8
 -1         2    1    0WATER
 -2         4         3         9        10         8         7        11        12
 -1         3    1    0WATER
 -2        10         9        13        14        12        11        15        16
 -1         4    1    0WATER
 -2         2        17        18         3         6        19        20         7
 -1         5    1    0WATER
 -2         3        18        21         9         7        20        22        11
 -1         6    1    0WATER
 -2         9        21        23        13        11        22        24        15
 -1         7    1    0WATER
 -2        17        25        26        18        19        27        28        20
 -1         8    1    0WATER
 -2        18        26        29        21        20        28        30        22
 -1         9    1    0WATER
 -2        21        29        31        23        22        30        32        24
 -1        10    1    0WATER
 -2        25        33        34        26        27        35        36        28
 -1        11    1    0WATER
 -2        26        34        37        29        28        36        38        30
 -1        12    1    0WATER
 -2        29        37        39        31        30        38        40        32
 -3
    1PSTEP                         1                                                                                                
  100CL  1011.0000000000          40                     3    1           1                                                         
 -4  V3DF        4    1                                                                                                             
 -5  V1          1    2    1    0                                                                                                   
 -5  V2          1    2    2    0                                                                                                   
 -5  V3          1    2    3    0                                                                                                   
 -5  ALL         1    2    0    0    1ALL                                                                                           
 -1         1-0.00000E+00 1.00000E+00-0.00000E+00
 -1         2-7.26577E-03 1.27727E+00 0.00000E+00
 -1         3 2.43445E-01 1.22511E+00 0.00000E+00
 -1         4 1.95090E-01 9.80785E-01-0.00000E+00
 -1         5-0.00000E+00 1.00000E+00-0.00000E+00
 -1         6-7.26577E-03 1.27727E+00 0.00000E+00
 -1         7 2.43445E-01 1.22511E+00 0.00000E+00
 -1         8 1.95090E-01 9.80785E-01-0.00000E+00
 -1         9 4.80695E-01 1.14949E+00 0.00000E+00
 -1        10 3.82683E-01 9.23880E-01-0.00000E+00
 -1        11 4.80695E-01 1.14949E+00 0.00000E+00
 -1        12 3.82683E-01 9.23880E-01-0.00000E+00
 -1        13 7.03574E-01 1.06605E+00-0.00000E+00
 -1        14 5.55570E-01 8.31470E-01-0.00000E+00
 -1        15 7.03574E-01 1.06605E+00-0.00000E+00
 -1        16 5.55570E-01 8.31470E-01-0.00000E+00
 -1        17-6.82314E-03 1.53816E+00 0.00000E+00
 -1        18 2.93642E-01 1.47112E+00 0.00000E+00
 -1        19-6.82314E-03 1.53816E+00 0.00000E+00
 -1        20 2.93642E-01 1.47112E+00 0.00000E+00
 -1        21 5.77567E-01 1.38661E+00 0.00000E+00
 -1        22 5.77567E-01 1.38661E+00 0.00000E+00
 -1        23 8.48881E-01 1.28272E+00-0.00000E+00
 -1        24 8.48881E-01 1.28272E+00-0.00000E+00
 -1        25 2.90380E-03 1.79544E+00 0.00000E+00
 -1        26 3.47502E-01 1.70973E+00 0.00000E+00
 -1        27 2.90380E-03 1.79544E+00 0.00000E+00
 -1        28 3.47502E-01 1.70973E+00 0.00000E+00
 -1        29 6.61662E-01 1.61597E+00 0.00000E+00
 -1        30 6.61662E-01 1.61597E+00 0.00000E+00
 -1        31 9.99909E-01 1.49124E+00-0.00000E+00
 -1        32 9.99909E-01 1.49124E+00-0.00000E+00
 -1        33-0.00000E+00 2.00000E+00-0.00000E+00
 -1        34 3.90181E-01 1.96157E+00-0.00000E+00
 -1        35-0.00000E+00 2.00000E+00-0.00000E+00
 -1        36 3.90181E-01 1.96157E+00-0.00000E+00
 -1        37 7.65367E-01 1.84776E+00-0.00000E+00
 -1        38 7.65367E-01 1.84776E+00-0.00000E+00
 -1        39 1.11114E+00 1.66294E+00-0.00000E+00
 -1        40 1.11114E+00 1.66294E+00-0.00000E+00
 -3
    1PSTEP                         1                                                                                                
  100CL  1011.0000000000          40                     3    1           1                                                         
 -4  PS3DF       1    1                                                                                                             
 -5  PS          1    1    0    0                                                                                                   
 -1         1 2.44329E+00
 -1         2 2.36431E+00
 -1         3 1.77592E+00
 -1         4 1.99288E+00
 -1         5 2.44329E+00
 -1         6 2.36431E+00
 -1         7 1.77592E+00
 -1         8 1.99288E+00
 -1         9 3.18541E+00
 -1        10 3.29590E+00
 -1        11 3.18541E+00
 -1        12 3.29590E+00
 -1        13 2.36431E+00
 -1        14 2.44329E+00
 -1        15 2.36431E+00
 -1        16 2.44329E+00
 -1        17 2.20997E+00
 -1        18 1.48362E+00
 -1        19 2.20997E+00
 -1        20 1.48362E+00
 -1        21 2.99564E+00
 -1        22 2.99564E+00
 -1        23 2.20997E+00
 -1        24 2.20997E+00
 -1        25 1.71582E+00
 -1        26 1.03572E+00
 -1        27 1.71582E+00
 -1        28 1.03572E+00
 -1        29 2.50802E+00
 -1        30 2.50802E+00
 -1        31 1.71582E+00
 -1        32 1.71582E+00
 -1        33 1.00000E+00
 -1        34 1.00000E+00
 -1        35 1.00000E+00
 -1        36 1.00000E+00
 -1        37 1.00000E+00
 -1        38 1.00000E+00
 -1        39 1.00000E+00
 -1        40 1.00000E+00
 -3
    1PSTEP                         1                                                                                                
  100CL  1011.0000000000          40                     3    1           1                                                         
 -4  TS3DF       1    1                                                                                                             
 -5  TS          1    1    0    0                                                                                                   
 -1         1 1.00000E+00
 -1         2 1.38660E+00
 -1         3 1.34646E+00
 -1         4 1.00000E+00
 -1         5 1.00000E+00
 -1         6 1.38660E+00
 -1         7 1.34646E+00
 -1         8 1.00000E+00
 -1         9 1.34550E+00
 -1        10 1.00000E+00
 -1        11 1.34550E+00
 -1        12 1.00000E+00
 -1        13 1.38660E+00
 -1        14 1.00000E+00
 -1        15 1.38660E+00
 -1        16 1.00000E+00
 -1        17 1.55571E+00
 -1        18 1.53641E+00
 -1        19 1.55571E+00
 -1        20 1.53641E+00
 -1        21 1.53385E+00
 -1        22 1.53385E+00
 -1        23 1.55571E+00
 -1        24 1.55571E+00
 -1        25 1.45343E+00
 -1        26 1.47283E+00
 -1        27 1.45343E+00
 -1        28 1.47283E+00
 -1        29 1.46918E+00
 -1        30 1.46918E+00
 -1        31 1.45343E+00
 -1        32 1.45343E+00
 -1        33 1.00000E+00
 -1        34 1.00000E+00
 -1        35 1.00000E+00
 -1        36 1.00000E+00
 -1        37 1.00000E+00
 -1        38 1.00000E+00
 -1        39 1.00000E+00
 -1        40 1.00000E+00
 -3
 9999
