    1C
    1C
    1UUSER
    1UDATE              31.july.2021        
    1UTIME              17:45:49
    1UHOST
    1UPGM               CalculiX
    1UDIR
    1UDBN
    2C                                                                   1
 -1         1 1.00000E+00 0.00000E+00-1.00000E+00
 -1         2 8.75000E-01 0.00000E+00-1.00000E+00
 -1         3 8.58187E-01-1.70704E-01-1.00000E+00
 -1         4 9.80785E-01-1.95090E-01-1.00000E+00
 -1         5 1.00000E+00 0.00000E+00 0.00000E+00
 -1         6 8.75000E-01 0.00000E+00 0.00000E+00
 -1         7 8.58187E-01-1.70704E-01 0.00000E+00
 -1         8 9.80785E-01-1.95090E-01 0.00000E+00
 -1        17 7.50000E-01 0.00000E+00-1.00000E+00
 -1        18 7.35589E-01-1.46318E-01-1.00000E+00
 -1        19 7.50000E-01 0.00000E+00 0.00000E+00
 -1        20 7.35589E-01-1.46318E-01 0.00000E+00
 -1        25 6.25000E-01 0.00000E+00-1.00000E+00
 -1        26 6.12991E-01-1.21931E-01-1.00000E+00
 -1        27 6.25000E-01 0.00000E+00 0.00000E+00
 -1        28 6.12991E-01-1.21931E-01 0.00000E+00
 -1        33 5.00000E-01 0.00000E+00-1.00000E+00
 -1        34 4.90393E-01-9.75452E-02-1.00000E+00
 -1        35 5.00000E-01 0.00000E+00 0.00000E+00
 -1        36 4.90393E-01-9.75452E-02 0.00000E+00
 -3
    3C                                                                   1
 -1         1    1    0AIR  
 -2         1         2         3         4         5         6         7         8
 -1         4    1    0AIR  
 -2         2        17        18         3         6        19        20         7
 -1         7    1    0AIR  
 -2        17        25        26        18        19        27        28        20
 -1        10    1    0AIR  
 -2        25        33        34        26        27        35        36        28
 -3
    1PSHOCKCOEF=     0.0050000000000                                                                                                
    1PSTEP                         1                                                                                                
  100CL  1019.2867334764          20                     3    1           1                                                         
 -4  SA3DF       1    1                                                                                                             
 -5  SA          1    1    0    0                                                                                                   
 -1         1 5.00000E-03
 -1         2 1.10994E-03
 -1         3 1.10994E-03
 -1         4 5.00000E-03
 -1         5 4.99886E-03
 -1         6 1.11041E-03
 -1         7 1.11041E-03
 -1         8 4.99886E-03
 -1        17 7.72779E-04
 -1        18 7.72779E-04
 -1        19 7.73851E-04
 -1        20 7.73851E-04
 -1        25 3.93287E-03
 -1        26 3.93287E-03
 -1        27 3.93170E-03
 -1        28 3.93170E-03
 -1        33 5.00000E-03
 -1        34 5.00000E-03
 -1        35 5.00000E-03
 -1        36 5.00000E-03
 -3
 9999
