    1C
    1UUSER                                                              
    1UDATE              02.july.2020                                    
    1UTIME              11:54:10                                        
    1UHOST                                                              
    1UPGM               CalculiX                                        
    1UVERSION           Version DEVELOPMENT                             
    1UCOMPILETIME       Thu Jul  2 09:44:20 CEST 2020                    
    1UDIR                                                               
    1UDBN                                                               
    1UMAT    1EL                                                        
    1UMAT    2SI1                                                       
    2C                            40                                     1
 -1         1 1.00000E+00 1.00000E+00 0.00000E+00
 -1         2 1.00000E+00 0.00000E+00 0.00000E+00
 -1         3 1.00000E+00 0.00000E+00 1.00000E+00
 -1         4 1.00000E+00 1.00000E+00 1.00000E+00
 -1         5 0.00000E+00 1.00000E+00 0.00000E+00
 -1         6 0.00000E+00 0.00000E+00 0.00000E+00
 -1         7 0.00000E+00 0.00000E+00 1.00000E+00
 -1         8 0.00000E+00 1.00000E+00 1.00000E+00
 -1         9 1.00000E+00 5.00000E-01 0.00000E+00
 -1        10 1.00000E+00 0.00000E+00 5.00000E-01
 -1        11 1.00000E+00 5.00000E-01 1.00000E+00
 -1        12 1.00000E+00 1.00000E+00 5.00000E-01
 -1        13 5.00000E-01 1.00000E+00 0.00000E+00
 -1        14 5.00000E-01 0.00000E+00 0.00000E+00
 -1        15 5.00000E-01 0.00000E+00 1.00000E+00
 -1        16 5.00000E-01 1.00000E+00 1.00000E+00
 -1        17 0.00000E+00 5.00000E-01 0.00000E+00
 -1        18 0.00000E+00 0.00000E+00 5.00000E-01
 -1        19 0.00000E+00 5.00000E-01 1.00000E+00
 -1        20 0.00000E+00 1.00000E+00 5.00000E-01
 -1        21 7.50000E-01 7.50000E-01 1.00000E+00
 -1        22 7.50000E-01 2.50000E-01 1.00000E+00
 -1        23 7.50000E-01 2.50000E-01 1.50000E+00
 -1        24 7.50000E-01 7.50000E-01 1.50000E+00
 -1        25 2.50000E-01 7.50000E-01 1.00000E+00
 -1        26 2.50000E-01 2.50000E-01 1.00000E+00
 -1        27 2.50000E-01 2.50000E-01 1.50000E+00
 -1        28 2.50000E-01 7.50000E-01 1.50000E+00
 -1        29 7.50000E-01 5.00000E-01 1.00000E+00
 -1        30 7.50000E-01 2.50000E-01 1.25000E+00
 -1        31 7.50000E-01 5.00000E-01 1.50000E+00
 -1        32 7.50000E-01 7.50000E-01 1.25000E+00
 -1        33 5.00000E-01 7.50000E-01 1.00000E+00
 -1        34 5.00000E-01 2.50000E-01 1.00000E+00
 -1        35 5.00000E-01 2.50000E-01 1.50000E+00
 -1        36 5.00000E-01 7.50000E-01 1.50000E+00
 -1        37 2.50000E-01 5.00000E-01 1.00000E+00
 -1        38 2.50000E-01 2.50000E-01 1.25000E+00
 -1        39 2.50000E-01 5.00000E-01 1.50000E+00
 -1        40 2.50000E-01 7.50000E-01 1.25000E+00
 -3
    3C                             2                                     1
 -1         1    4    0    1
 -2         1         2         3         4         5         6         7         8         9        10
 -2        11        12        13        14        15        16        17        18        19        20
 -1         2    4    0    1
 -2        21        22        23        24        25        26        27        28        29        30
 -2        31        32        33        34        35        36        37        38        39        40
 -3
    1PSTEP                         1           1           1          
  100CL  101 1.000000000          40                     0    1           1
 -4  DISP        4    1
 -5  D1          1    2    1    0
 -5  D2          1    2    2    0
 -5  D3          1    2    3    0
 -5  ALL         1    2    0    0    1ALL
 -1         1 0.00000E+00 0.00000E+00 0.00000E+00
 -1         2 0.00000E+00 0.00000E+00 0.00000E+00
 -1         3-2.70717E-05 2.70717E-05-5.59052E-05
 -1         4-2.70717E-05-2.70717E-05-5.59052E-05
 -1         5 0.00000E+00 0.00000E+00 0.00000E+00
 -1         6 0.00000E+00 0.00000E+00 0.00000E+00
 -1         7 2.70717E-05 2.70717E-05-5.59052E-05
 -1         8 2.70717E-05-2.70717E-05-5.59052E-05
 -1         9 0.00000E+00 0.00000E+00 0.00000E+00
 -1        10 5.29337E-06-5.29337E-06-2.79516E-05
 -1        11-2.67971E-05-1.27076E-17-1.03281E-04
 -1        12 5.29337E-06 5.29337E-06-2.79516E-05
 -1        13 0.00000E+00 0.00000E+00 0.00000E+00
 -1        14 0.00000E+00 0.00000E+00 0.00000E+00
 -1        15-3.16928E-18 2.67971E-05-1.03281E-04
 -1        16-6.60369E-18-2.67971E-05-1.03281E-04
 -1        17 0.00000E+00 0.00000E+00 0.00000E+00
 -1        18-5.29337E-06-5.29337E-06-2.79516E-05
 -1        19 2.67971E-05-9.29615E-18-1.03281E-04
 -1        20-5.29337E-06 5.29337E-06-2.79516E-05
 -1        21 3.85474E-06 3.85474E-06-1.38541E-04
 -1        22 3.85474E-06-3.85474E-06-1.38541E-04
 -1        23 0.00000E+00 0.00000E+00-3.96979E-04
 -1        24 0.00000E+00 0.00000E+00-3.96979E-04
 -1        25-3.85474E-06 3.85474E-06-1.38541E-04
 -1        26-3.85474E-06-3.85474E-06-1.38541E-04
 -1        27 0.00000E+00 0.00000E+00-3.96979E-04
 -1        28 0.00000E+00 0.00000E+00-3.96979E-04
 -1        29 2.62029E-06-3.18719E-17-1.49206E-04
 -1        30-1.63512E-06 1.63512E-06-2.67760E-04
 -1        31 0.00000E+00 0.00000E+00-3.92515E-04
 -1        32-1.63512E-06-1.63512E-06-2.67760E-04
 -1        33-1.91690E-17 2.62029E-06-1.49206E-04
 -1        34-2.63421E-18-2.62029E-06-1.49206E-04
 -1        35 0.00000E+00 0.00000E+00-3.92515E-04
 -1        36 0.00000E+00 0.00000E+00-3.92515E-04
 -1        37-2.62029E-06-1.53684E-17-1.49206E-04
 -1        38 1.63512E-06 1.63512E-06-2.67760E-04
 -1        39 0.00000E+00 0.00000E+00-3.92515E-04
 -1        40 1.63512E-06-1.63512E-06-2.67760E-04
 -3
    1PSTEP                         2           1           1          
  100CL  101 1.000000000          40                     0    1           1
 -4  STRESS      6    1
 -5  SXX         1    4    1    1
 -5  SYY         1    4    2    2
 -5  SZZ         1    4    3    3
 -5  SXY         1    4    1    2
 -5  SYZ         1    4    2    3
 -5  SZX         1    4    3    1
 -1         1 7.74010E-05 7.74010E-05-1.17391E+01 4.95432E-04 5.06486E+00 5.06486E+00
 -1         2 7.74010E-05 7.74010E-05-1.17391E+01-4.95432E-04-5.06486E+00 5.06486E+00
 -1         3-1.13692E+01-1.13692E+01-1.17335E+01 2.28770E-01-9.14615E+00 9.14615E+00
 -1         4-1.13692E+01-1.13692E+01-1.17335E+01-2.28770E-01 9.14615E+00 9.14615E+00
 -1         5 7.74010E-05 7.74010E-05-1.17391E+01-4.95432E-04 5.06486E+00-5.06486E+00
 -1         6 7.74010E-05 7.74010E-05-1.17391E+01 4.95432E-04-5.06486E+00-5.06486E+00
 -1         7-1.13692E+01-1.13692E+01-1.17335E+01-2.28770E-01-9.14615E+00-9.14615E+00
 -1         8-1.13692E+01-1.13692E+01-1.17335E+01 2.28770E-01 9.14615E+00-9.14615E+00
 -1         9 2.26191E-04 1.08532E-04-2.16859E+01 4.52763E-16-1.59872E-14 5.09320E+00
 -1        10 2.22426E+00 2.22426E+00-1.17374E+01 1.14795E-01-7.10615E+00 7.10615E+00
 -1        11-1.12542E+01-1.13711E+01-2.16857E+01-1.35775E-12 1.32250E-12 9.17511E+00
 -1        12 2.22426E+00 2.22426E+00-1.17374E+01-1.14795E-01 7.10615E+00 7.10615E+00
 -1        13 1.08532E-04 2.26191E-04-2.16859E+01-7.77156E-16 5.09320E+00 1.71307E-13
 -1        14 1.08532E-04 2.26191E-04-2.16859E+01 5.67255E-16-5.09320E+00-4.54525E-13
 -1        15-1.13711E+01-1.12542E+01-2.16857E+01-1.31374E-13-9.17511E+00 1.05249E-13
 -1        16-1.13711E+01-1.12542E+01-2.16857E+01-1.24951E-12 9.17511E+00 1.27254E-12
 -1        17 2.26191E-04 1.08532E-04-2.16859E+01 1.70003E-16-6.52700E-13-5.09320E+00
 -1        18 2.22426E+00 2.22426E+00-1.17374E+01-1.14795E-01-7.10615E+00-7.10615E+00
 -1        19-1.12542E+01-1.13711E+01-2.16857E+01-2.28706E-14 1.49658E-13-9.17511E+00
 -1        20 2.22426E+00 2.22426E+00-1.17374E+01 1.14795E-01 7.10615E+00-7.10615E+00
 -1        21 3.23995E+00 3.23995E+00-1.08452E+02 2.07538E+00 5.15608E+00 5.15608E+00
 -1        22 3.23995E+00 3.23995E+00-1.08452E+02-2.07538E+00-5.15608E+00 5.15608E+00
 -1        23-5.72259E-05-5.72259E-05-1.08457E+02-9.50649E-05 1.56778E+00-1.56778E+00
 -1        24-5.72259E-05-5.72259E-05-1.08457E+02 9.50649E-05-1.56778E+00-1.56778E+00
 -1        25 3.23995E+00 3.23995E+00-1.08452E+02-2.07538E+00 5.15608E+00-5.15608E+00
 -1        26 3.23995E+00 3.23995E+00-1.08452E+02 2.07538E+00-5.15608E+00-5.15608E+00
 -1        27-5.72259E-05-5.72259E-05-1.08457E+02 9.50649E-05 1.56778E+00 1.56778E+00
 -1        28-5.72259E-05-5.72259E-05-1.08457E+02-9.50649E-05-1.56778E+00 1.56778E+00
 -1        29 2.20242E+00 3.23959E+00-1.02117E+02-3.36963E-11-5.67395E-11 5.41490E+00
 -1        30-1.37412E+00-1.37412E+00-1.08467E+02-1.03748E+00-1.79405E+00 1.79405E+00
 -1        31-3.86583E-05-2.45109E-06-1.02120E+02-1.23165E-16 1.26089E-11-1.30871E+00
 -1        32-1.37412E+00-1.37412E+00-1.08467E+02 1.03748E+00 1.79405E+00 1.79405E+00
 -1        33 3.23959E+00 2.20242E+00-1.02117E+02-2.65785E-11 5.41490E+00-4.39559E-11
 -1        34 3.23959E+00 2.20242E+00-1.02117E+02 1.21816E-11-5.41490E+00-2.28979E-11
 -1        35-2.45109E-06-3.86583E-05-1.02120E+02-3.46945E-16 1.30871E+00 1.70359E-11
 -1        36-2.45109E-06-3.86583E-05-1.02120E+02-2.74086E-16-1.30871E+00 8.60222E-12
 -1        37 2.20242E+00 3.23959E+00-1.02117E+02 1.92957E-11-3.56098E-11-5.41490E+00
 -1        38-1.37412E+00-1.37412E+00-1.08467E+02 1.03748E+00-1.79405E+00-1.79405E+00
 -1        39-3.86583E-05-2.45109E-06-1.02120E+02 3.05311E-16 2.10980E-11 1.30871E+00
 -1        40-1.37412E+00-1.37412E+00-1.08467E+02-1.03748E+00 1.79405E+00-1.79405E+00
 -3
    1PSTEP                         3           1           1          
  100CL  101 1.000000000           8                     0    1           1
 -4  CONTACT     6    1
 -5  COPEN       1    4    1    1
 -5  CSLIP1      1    4    2    2
 -5  CSLIP2      1    4    3    3
 -5  CPRESS      1    4    1    2
 -5  CSHEAR1     1    4    2    3
 -5  CSHEAR2     1    4    3    1
 -1        37-4.80349E-07-7.58649E-07-2.44385E-19 1.03930E+02-1.60188E+00-4.55575E-13
 -1        34-4.80349E-07 7.08645E-20-7.58649E-07 1.03930E+02 1.78081E-13-1.60188E+00
 -1        33-4.80349E-07-6.28275E-19 7.58649E-07 1.03930E+02-1.30433E-12 1.60188E+00
 -1        29-4.80349E-07 7.58649E-07-9.41841E-19 1.03930E+02 1.60188E+00-1.93469E-12
 -1        26-1.44651E-07-2.16095E-07-2.16095E-07 1.15721E+02-1.72876E+00-1.72876E+00
 -1        25-1.44651E-07-2.16095E-07 2.16095E-07 1.15721E+02-1.72876E+00 1.72876E+00
 -1        22-1.44651E-07 2.16095E-07-2.16095E-07 1.15721E+02 1.72876E+00-1.72876E+00
 -1        21-1.44651E-07 2.16095E-07 2.16095E-07 1.15721E+02 1.72876E+00 1.72876E+00
 -3
    1PSTEP                         4           1           1          
  100CL  101 1.000000000          40                     0    1           1
 -4  ERROR       1    1
 -5  STR(%)      1    1    0    0
 -1         1 3.19809E+00
 -1         2 3.19809E+00
 -1         3 3.19809E+00
 -1         4 3.19809E+00
 -1         5 3.19809E+00
 -1         6 3.19809E+00
 -1         7 3.19809E+00
 -1         8 3.19809E+00
 -1         9 3.19809E+00
 -1        10 3.19809E+00
 -1        11 3.19809E+00
 -1        12 3.19809E+00
 -1        13 3.19809E+00
 -1        14 3.19809E+00
 -1        15 3.19809E+00
 -1        16 3.19809E+00
 -1        17 3.19809E+00
 -1        18 3.19809E+00
 -1        19 3.19809E+00
 -1        20 3.19809E+00
 -1        21 3.87155E-01
 -1        22 3.87155E-01
 -1        23 3.87155E-01
 -1        24 3.87155E-01
 -1        25 3.87155E-01
 -1        26 3.87155E-01
 -1        27 3.87155E-01
 -1        28 3.87155E-01
 -1        29 3.87155E-01
 -1        30 3.87155E-01
 -1        31 3.87155E-01
 -1        32 3.87155E-01
 -1        33 3.87155E-01
 -1        34 3.87155E-01
 -1        35 3.87155E-01
 -1        36 3.87155E-01
 -1        37 3.87155E-01
 -1        38 3.87155E-01
 -1        39 3.87155E-01
 -1        40 3.87155E-01
 -3
 9999
