    1C
    1UUSER                                                              
    1UDATE              02.july.2020                                    
    1UTIME              11:54:13                                        
    1UHOST                                                              
    1UPGM               CalculiX                                        
    1UVERSION           Version DEVELOPMENT                             
    1UCOMPILETIME       Thu Jul  2 09:44:20 CEST 2020                    
    1UDIR                                                               
    1UDBN                                                               
    1UMAT    1EL                                                        
    1UMAT    2SI1                                                       
    2C                            40                                     1
 -1         1 1.00000E+00 1.00000E+00 0.00000E+00
 -1         2 1.00000E+00 0.00000E+00 0.00000E+00
 -1         3 1.00000E+00 0.00000E+00 1.00000E+00
 -1         4 1.00000E+00 1.00000E+00 1.00000E+00
 -1         5 0.00000E+00 1.00000E+00 0.00000E+00
 -1         6 0.00000E+00 0.00000E+00 0.00000E+00
 -1         7 0.00000E+00 0.00000E+00 1.00000E+00
 -1         8 0.00000E+00 1.00000E+00 1.00000E+00
 -1         9 1.00000E+00 5.00000E-01 0.00000E+00
 -1        10 1.00000E+00 0.00000E+00 5.00000E-01
 -1        11 1.00000E+00 5.00000E-01 1.00000E+00
 -1        12 1.00000E+00 1.00000E+00 5.00000E-01
 -1        13 5.00000E-01 1.00000E+00 0.00000E+00
 -1        14 5.00000E-01 0.00000E+00 0.00000E+00
 -1        15 5.00000E-01 0.00000E+00 1.00000E+00
 -1        16 5.00000E-01 1.00000E+00 1.00000E+00
 -1        17 0.00000E+00 5.00000E-01 0.00000E+00
 -1        18 0.00000E+00 0.00000E+00 5.00000E-01
 -1        19 0.00000E+00 5.00000E-01 1.00000E+00
 -1        20 0.00000E+00 1.00000E+00 5.00000E-01
 -1        21 7.50000E-01 7.50000E-01 1.00000E+00
 -1        22 7.50000E-01 2.50000E-01 1.00000E+00
 -1        23 7.50000E-01 2.50000E-01 1.50000E+00
 -1        24 7.50000E-01 7.50000E-01 1.50000E+00
 -1        25 2.50000E-01 7.50000E-01 1.00000E+00
 -1        26 2.50000E-01 2.50000E-01 1.00000E+00
 -1        27 2.50000E-01 2.50000E-01 1.50000E+00
 -1        28 2.50000E-01 7.50000E-01 1.50000E+00
 -1        29 7.50000E-01 5.00000E-01 1.00000E+00
 -1        30 7.50000E-01 2.50000E-01 1.25000E+00
 -1        31 7.50000E-01 5.00000E-01 1.50000E+00
 -1        32 7.50000E-01 7.50000E-01 1.25000E+00
 -1        33 5.00000E-01 7.50000E-01 1.00000E+00
 -1        34 5.00000E-01 2.50000E-01 1.00000E+00
 -1        35 5.00000E-01 2.50000E-01 1.50000E+00
 -1        36 5.00000E-01 7.50000E-01 1.50000E+00
 -1        37 2.50000E-01 5.00000E-01 1.00000E+00
 -1        38 2.50000E-01 2.50000E-01 1.25000E+00
 -1        39 2.50000E-01 5.00000E-01 1.50000E+00
 -1        40 2.50000E-01 7.50000E-01 1.25000E+00
 -3
    3C                             2                                     1
 -1         1    4    0    1
 -2         1         2         3         4         5         6         7         8         9        10
 -2        11        12        13        14        15        16        17        18        19        20
 -1         2    4    0    1
 -2        21        22        23        24        25        26        27        28        29        30
 -2        31        32        33        34        35        36        37        38        39        40
 -3
    1PSTEP                         1           1           1          
  100CL  101 1.000000000          40                     0    1           1
 -4  DISP        4    1
 -5  D1          1    2    1    0
 -5  D2          1    2    2    0
 -5  D3          1    2    3    0
 -5  ALL         1    2    0    0    1ALL
 -1         1 0.00000E+00 0.00000E+00 0.00000E+00
 -1         2 0.00000E+00 0.00000E+00 0.00000E+00
 -1         3-2.77452E-05 2.77452E-05-5.42077E-05
 -1         4-2.77452E-05-2.77452E-05-5.42077E-05
 -1         5 0.00000E+00 0.00000E+00 0.00000E+00
 -1         6 0.00000E+00 0.00000E+00 0.00000E+00
 -1         7 2.77452E-05 2.77452E-05-5.42077E-05
 -1         8 2.77452E-05-2.77452E-05-5.42077E-05
 -1         9 0.00000E+00 0.00000E+00 0.00000E+00
 -1        10 5.46192E-06-5.46192E-06-2.71028E-05
 -1        11-2.75419E-05-1.39077E-17-1.02857E-04
 -1        12 5.46192E-06 5.46192E-06-2.71028E-05
 -1        13 0.00000E+00 0.00000E+00 0.00000E+00
 -1        14 0.00000E+00 0.00000E+00 0.00000E+00
 -1        15-3.64511E-18 2.75419E-05-1.02857E-04
 -1        16-7.76739E-18-2.75419E-05-1.02857E-04
 -1        17 0.00000E+00 0.00000E+00 0.00000E+00
 -1        18-5.46192E-06-5.46192E-06-2.71028E-05
 -1        19 2.75419E-05-9.84263E-18-1.02857E-04
 -1        20-5.46192E-06 5.46192E-06-2.71028E-05
 -1        21-3.97058E-06-3.97058E-06-1.56836E-04
 -1        22-3.97058E-06 3.97058E-06-1.56836E-04
 -1        23 0.00000E+00 0.00000E+00-3.90873E-04
 -1        24 0.00000E+00 0.00000E+00-3.90873E-04
 -1        25 3.97058E-06-3.97058E-06-1.56836E-04
 -1        26 3.97058E-06 3.97058E-06-1.56836E-04
 -1        27 0.00000E+00 0.00000E+00-3.90873E-04
 -1        28 0.00000E+00 0.00000E+00-3.90873E-04
 -1        29-3.97056E-06-3.16933E-17-1.54257E-04
 -1        30 2.33175E-07-2.33175E-07-2.73854E-04
 -1        31 0.00000E+00 0.00000E+00-3.91465E-04
 -1        32 2.33175E-07 2.33175E-07-2.73854E-04
 -1        33-1.90459E-17-3.97056E-06-1.54257E-04
 -1        34-2.74678E-18 3.97056E-06-1.54257E-04
 -1        35 0.00000E+00 0.00000E+00-3.91465E-04
 -1        36 0.00000E+00 0.00000E+00-3.91465E-04
 -1        37 3.97056E-06-1.54515E-17-1.54257E-04
 -1        38-2.33175E-07-2.33175E-07-2.73854E-04
 -1        39 0.00000E+00 0.00000E+00-3.91465E-04
 -1        40-2.33175E-07 2.33175E-07-2.73854E-04
 -3
    1PSTEP                         2           1           1          
  100CL  101 1.000000000          40                     0    1           1
 -4  STRESS      6    1
 -5  SXX         1    4    1    1
 -5  SYY         1    4    2    2
 -5  SZZ         1    4    3    3
 -5  SXY         1    4    1    2
 -5  SYZ         1    4    2    3
 -5  SZX         1    4    3    1
 -1         1 8.06408E-05 8.06408E-05-1.13828E+01 5.21542E-04 5.20635E+00 5.20635E+00
 -1         2 8.06408E-05 8.06408E-05-1.13828E+01-5.21542E-04-5.20635E+00 5.20635E+00
 -1         3-1.16520E+01-1.16520E+01-1.13767E+01 1.68805E-01-9.39794E+00 9.39794E+00
 -1         4-1.16520E+01-1.16520E+01-1.13767E+01-1.68805E-01 9.39794E+00 9.39794E+00
 -1         5 8.06408E-05 8.06408E-05-1.13828E+01-5.21542E-04 5.20635E+00-5.20635E+00
 -1         6 8.06408E-05 8.06408E-05-1.13828E+01 5.21542E-04-5.20635E+00-5.20635E+00
 -1         7-1.16520E+01-1.16520E+01-1.13767E+01-1.68805E-01-9.39794E+00-9.39794E+00
 -1         8-1.16520E+01-1.16520E+01-1.13767E+01 1.68805E-01 9.39794E+00-9.39794E+00
 -1         9 2.38288E-04 1.16101E-04-2.15968E+01-7.11237E-17-1.49880E-14 5.22718E+00
 -1        10 2.29510E+00 2.29510E+00-1.13809E+01 8.48284E-02-7.30282E+00 7.30282E+00
 -1        11-1.15670E+01-1.16540E+01-2.15965E+01-5.71735E-13 6.06182E-14 9.41941E+00
 -1        12 2.29510E+00 2.29510E+00-1.13809E+01-8.48284E-02 7.30282E+00 7.30282E+00
 -1        13 1.16101E-04 2.38288E-04-2.15968E+01-1.01308E-15 5.22718E+00 1.86184E-13
 -1        14 1.16101E-04 2.38288E-04-2.15968E+01 9.52363E-16-5.22718E+00-5.22027E-13
 -1        15-1.16540E+01-1.15670E+01-2.15965E+01-9.42826E-13-9.41941E+00-8.36220E-13
 -1        16-1.16540E+01-1.15670E+01-2.15965E+01-7.13369E-13 9.41941E+00 3.45057E-13
 -1        17 2.38288E-04 1.16101E-04-2.15968E+01-3.07046E-16-7.44627E-13-5.22718E+00
 -1        18 2.29510E+00 2.29510E+00-1.13809E+01-8.48284E-02-7.30282E+00-7.30282E+00
 -1        19-1.15670E+01-1.16540E+01-2.15965E+01-1.07989E-12-1.12976E-12-9.41941E+00
 -1        20 2.29510E+00 2.29510E+00-1.13809E+01 8.48284E-02 7.30282E+00-7.30282E+00
 -1        21-3.33676E+00-3.33676E+00-9.82258E+01 4.36178E-05 5.29731E-01 5.29731E-01
 -1        22-3.33676E+00-3.33676E+00-9.82258E+01-4.36178E-05-5.29731E-01 5.29731E-01
 -1        23 2.31770E-05 2.31770E-05-9.82227E+01-1.27944E-05 5.31276E-01-5.31276E-01
 -1        24 2.31770E-05 2.31770E-05-9.82227E+01 1.27944E-05-5.31276E-01-5.31276E-01
 -1        25-3.33676E+00-3.33676E+00-9.82258E+01-4.36178E-05 5.29731E-01-5.29731E-01
 -1        26-3.33676E+00-3.33676E+00-9.82258E+01 4.36178E-05-5.29731E-01-5.29731E-01
 -1        27 2.31770E-05 2.31770E-05-9.82227E+01 1.27944E-05 5.31276E-01 5.31276E-01
 -1        28 2.31770E-05 2.31770E-05-9.82227E+01-1.27944E-05-5.31276E-01 5.31276E-01
 -1        29-3.33681E+00-3.33688E+00-9.95648E+01-6.83104E-12-1.30143E-11 5.29707E-01
 -1        30 1.95968E-01 1.95968E-01-9.82315E+01 7.56627E-06 7.90384E-04-7.90384E-04
 -1        31-1.92047E-05-1.05362E-05-9.95617E+01-5.19535E-16-5.97730E-12-5.31269E-01
 -1        32 1.95968E-01 1.95968E-01-9.82315E+01-7.56627E-06-7.90384E-04-7.90384E-04
 -1        33-3.33688E+00-3.33681E+00-9.95648E+01-6.77542E-12 5.29707E-01-1.20720E-11
 -1        34-3.33688E+00-3.33681E+00-9.95648E+01-6.90064E-12-5.29707E-01 1.06692E-11
 -1        35-1.05362E-05-1.92047E-05-9.95617E+01-2.61618E-16 5.31269E-01 3.54988E-12
 -1        36-1.05362E-05-1.92047E-05-9.95617E+01 8.55838E-16-5.31269E-01-4.95328E-12
 -1        37-3.33681E+00-3.33688E+00-9.95648E+01-6.84540E-12 9.79233E-12-5.29707E-01
 -1        38 1.95968E-01 1.95968E-01-9.82315E+01-7.56627E-06 7.90384E-04 7.90384E-04
 -1        39-1.92047E-05-1.05362E-05-9.95617E+01 2.59091E-16 2.61133E-12 5.31269E-01
 -1        40 1.95968E-01 1.95968E-01-9.82315E+01 7.56627E-06-7.90384E-04 7.90384E-04
 -3
    1PSTEP                         3           1           1          
  100CL  101 1.000000000           8                     0    1           1
 -4  CONTACT     6    1
 -5  COPEN       1    4    1    1
 -5  CSLIP1      1    4    2    2
 -5  CSLIP2      1    4    3    3
 -5  CPRESS      1    4    1    2
 -5  CSHEAR1     1    4    2    3
 -5  CSHEAR2     1    4    3    1
 -1        37 0.00000E+00 0.00000E+00 0.00000E+00 1.00000E+02-9.80884E-01-4.14946E-13
 -1        34 0.00000E+00 0.00000E+00 0.00000E+00 1.00000E+02 2.11997E-13-9.80884E-01
 -1        33 0.00000E+00 0.00000E+00 0.00000E+00 1.00000E+02-1.21458E-12 9.80884E-01
 -1        29 0.00000E+00 0.00000E+00 0.00000E+00 1.00000E+02 9.80884E-01-1.83686E-12
 -1        26-6.25000E-07-6.13053E-07-6.13053E-07 1.00000E+02-9.80884E-01-9.80884E-01
 -1        25-6.25000E-07-6.13053E-07 6.13053E-07 1.00000E+02-9.80884E-01 9.80884E-01
 -1        22-6.25000E-07 6.13053E-07-6.13053E-07 1.00000E+02 9.80884E-01-9.80884E-01
 -1        21-6.25000E-07 6.13053E-07 6.13053E-07 1.00000E+02 9.80884E-01 9.80884E-01
 -3
    1PSTEP                         4           1           1          
  100CL  101 1.000000000          40                     0    1           1
 -4  ERROR       1    1
 -5  STR(%)      1    1    0    0
 -1         1 3.35084E+00
 -1         2 3.35084E+00
 -1         3 3.35084E+00
 -1         4 3.35084E+00
 -1         5 3.35084E+00
 -1         6 3.35084E+00
 -1         7 3.35084E+00
 -1         8 3.35084E+00
 -1         9 3.35084E+00
 -1        10 3.35084E+00
 -1        11 3.35084E+00
 -1        12 3.35084E+00
 -1        13 3.35084E+00
 -1        14 3.35084E+00
 -1        15 3.35084E+00
 -1        16 3.35084E+00
 -1        17 3.35084E+00
 -1        18 3.35084E+00
 -1        19 3.35084E+00
 -1        20 3.35084E+00
 -1        21 8.10340E-02
 -1        22 8.10340E-02
 -1        23 8.10340E-02
 -1        24 8.10340E-02
 -1        25 8.10340E-02
 -1        26 8.10340E-02
 -1        27 8.10340E-02
 -1        28 8.10340E-02
 -1        29 8.10340E-02
 -1        30 8.10340E-02
 -1        31 8.10340E-02
 -1        32 8.10340E-02
 -1        33 8.10340E-02
 -1        34 8.10340E-02
 -1        35 8.10340E-02
 -1        36 8.10340E-02
 -1        37 8.10340E-02
 -1        38 8.10340E-02
 -1        39 8.10340E-02
 -1        40 8.10340E-02
 -3
 9999
