    1C
    1UUSER                                                              
    1UDATE              10.march.2026                                   
    1UTIME              18:33:52                                        
    1UHOST                                                              
    1UPGM               CalculiX                                        
    1UVERSION           Version DEVELOPMENT                             
    1UCOMPILETIME       Mon Mar  2 17:58:21 CET 2026                    
    1UDIR                                                               
    1UDBN                                                               
    1UMAT    1EL                                                        
    1UMAT    2SI1                                                       
    2C                            40                                     1
 -1         1 1.00000E+00 1.00000E+00 0.00000E+00
 -1         2 1.00000E+00 0.00000E+00 0.00000E+00
 -1         3 1.00000E+00 0.00000E+00 1.00000E+00
 -1         4 1.00000E+00 1.00000E+00 1.00000E+00
 -1         5 0.00000E+00 1.00000E+00 0.00000E+00
 -1         6 0.00000E+00 0.00000E+00 0.00000E+00
 -1         7 0.00000E+00 0.00000E+00 1.00000E+00
 -1         8 0.00000E+00 1.00000E+00 1.00000E+00
 -1         9 1.00000E+00 5.00000E-01 0.00000E+00
 -1        10 1.00000E+00 0.00000E+00 5.00000E-01
 -1        11 1.00000E+00 5.00000E-01 1.00000E+00
 -1        12 1.00000E+00 1.00000E+00 5.00000E-01
 -1        13 5.00000E-01 1.00000E+00 0.00000E+00
 -1        14 5.00000E-01 0.00000E+00 0.00000E+00
 -1        15 5.00000E-01 0.00000E+00 1.00000E+00
 -1        16 5.00000E-01 1.00000E+00 1.00000E+00
 -1        17 0.00000E+00 5.00000E-01 0.00000E+00
 -1        18 0.00000E+00 0.00000E+00 5.00000E-01
 -1        19 0.00000E+00 5.00000E-01 1.00000E+00
 -1        20 0.00000E+00 1.00000E+00 5.00000E-01
 -1        21 7.50000E-01 7.50000E-01 1.00000E+00
 -1        22 7.50000E-01 2.50000E-01 1.00000E+00
 -1        23 7.50000E-01 2.50000E-01 1.50000E+00
 -1        24 7.50000E-01 7.50000E-01 1.50000E+00
 -1        25 2.50000E-01 7.50000E-01 1.00000E+00
 -1        26 2.50000E-01 2.50000E-01 1.00000E+00
 -1        27 2.50000E-01 2.50000E-01 1.50000E+00
 -1        28 2.50000E-01 7.50000E-01 1.50000E+00
 -1        29 7.50000E-01 5.00000E-01 1.00000E+00
 -1        30 7.50000E-01 2.50000E-01 1.25000E+00
 -1        31 7.50000E-01 5.00000E-01 1.50000E+00
 -1        32 7.50000E-01 7.50000E-01 1.25000E+00
 -1        33 5.00000E-01 7.50000E-01 1.00000E+00
 -1        34 5.00000E-01 2.50000E-01 1.00000E+00
 -1        35 5.00000E-01 2.50000E-01 1.50000E+00
 -1        36 5.00000E-01 7.50000E-01 1.50000E+00
 -1        37 2.50000E-01 5.00000E-01 1.00000E+00
 -1        38 2.50000E-01 2.50000E-01 1.25000E+00
 -1        39 2.50000E-01 5.00000E-01 1.50000E+00
 -1        40 2.50000E-01 7.50000E-01 1.25000E+00
 -3
    3C                             2                                     1
 -1         1    4    0    1
 -2         1         2         3         4         5         6         7         8         9        10
 -2        11        12        13        14        15        16        17        18        19        20
 -1         2    4    0    1
 -2        21        22        23        24        25        26        27        28        29        30
 -2        31        32        33        34        35        36        37        38        39        40
 -3
    1PSTEP                         1           1           1          
  100CL  101 1.000000000          40                     0    1           1
 -4  DISP        4    1
 -5  D1          1    2    1    0
 -5  D2          1    2    2    0
 -5  D3          1    2    3    0
 -5  ALL         1    2    0    0    1ALL
 -1         1 0.00000E+00 0.00000E+00 0.00000E+00
 -1         2 0.00000E+00 0.00000E+00 0.00000E+00
 -1         3-4.42809E-05 2.45102E-05-5.00753E-05
 -1         4-4.42809E-05-2.45102E-05-5.00753E-05
 -1         5 0.00000E+00 0.00000E+00 0.00000E+00
 -1         6 0.00000E+00 0.00000E+00 0.00000E+00
 -1         7 3.72816E-06 2.19478E-05-6.90955E-05
 -1         8 3.72816E-06-2.19478E-05-6.90955E-05
 -1         9 0.00000E+00 0.00000E+00 0.00000E+00
 -1        10-2.69402E-06-4.01506E-06-2.20119E-05
 -1        11-4.60841E-05-1.94950E-17-9.50553E-05
 -1        12-2.69402E-06 4.01506E-06-2.20119E-05
 -1        13 0.00000E+00 0.00000E+00 0.00000E+00
 -1        14 0.00000E+00 0.00000E+00 0.00000E+00
 -1        15-2.05068E-05 2.12580E-05-1.04984E-04
 -1        16-2.05068E-05-2.12580E-05-1.04984E-04
 -1        17 0.00000E+00 0.00000E+00 0.00000E+00
 -1        18-1.32096E-05-4.98321E-06-3.75716E-05
 -1        19 1.88381E-06-8.54987E-18-1.11777E-04
 -1        20-1.32096E-05 4.98321E-06-3.75716E-05
 -1        21-3.38116E-05-1.11957E-05-1.35443E-04
 -1        22-3.38116E-05 1.11957E-05-1.35443E-04
 -1        23 0.00000E+00 0.00000E+00-4.16614E-04
 -1        24 0.00000E+00 0.00000E+00-4.16614E-04
 -1        25-1.44660E-05-7.30091E-06-1.42469E-04
 -1        26-1.44660E-05 7.30091E-06-1.42469E-04
 -1        27 0.00000E+00 0.00000E+00-3.81631E-04
 -1        28 0.00000E+00 0.00000E+00-3.81631E-04
 -1        29-3.42650E-05-1.77896E-17-1.44311E-04
 -1        30-3.13704E-05 2.19705E-06-2.78105E-04
 -1        31 0.00000E+00 0.00000E+00-4.10860E-04
 -1        32-3.13704E-05-2.19705E-06-2.78105E-04
 -1        33-2.28034E-05-9.97815E-06-1.48519E-04
 -1        34-2.28034E-05 9.97815E-06-1.48519E-04
 -1        35 0.00000E+00 0.00000E+00-3.90557E-04
 -1        36 0.00000E+00 0.00000E+00-3.90557E-04
 -1        37-1.21384E-05-1.79988E-17-1.51743E-04
 -1        38-1.52187E-05 2.78820E-06-2.59973E-04
 -1        39 0.00000E+00 0.00000E+00-3.76085E-04
 -1        40-1.52187E-05-2.78820E-06-2.59973E-04
 -3
    1PSTEP                         2           1           1          
  100CL  101 1.000000000          40                     0    1           1
 -4  STRESS      6    1
 -5  SXX         1    4    1    1
 -5  SYY         1    4    2    2
 -5  SZZ         1    4    3    3
 -5  SXY         1    4    1    2
 -5  SYZ         1    4    2    3
 -5  SZX         1    4    3    1
 -1         1-1.78714E-04-2.56110E-05-7.97496E+00 2.81604E-04 4.25935E+00 3.51744E+00
 -1         2-1.78714E-04-2.56110E-05-7.97496E+00-2.81604E-04-4.25935E+00 3.51744E+00
 -1         3-9.88701E+00-1.02935E+01-1.30494E+01 3.37645E-01-9.48356E+00 8.24721E+00
 -1         4-9.88701E+00-1.02935E+01-1.30494E+01-3.37645E-01 9.48356E+00 8.24721E+00
 -1         5 3.74674E-04 6.46633E-05-1.70482E+01-5.43472E-04 4.39653E+00-5.93823E+00
 -1         6 3.74674E-04 6.46633E-05-1.70482E+01 5.43472E-04-4.39653E+00-5.93823E+00
 -1         7-1.02749E+01-9.21743E+00-1.19637E+01-1.33192E+00-8.91889E+00-1.03468E+01
 -1         8-1.02749E+01-9.21743E+00-1.19637E+01 1.33192E+00 8.91889E+00-1.03468E+01
 -1         9-6.74681E-05 4.78564E-05-1.74195E+01 1.19349E-15 4.35318E-13 3.32774E+00
 -1        10 2.30610E+00 1.68722E+00-1.05134E+01 1.36379E-01-6.87195E+00 6.51799E+00
 -1        11-9.87872E+00-1.02952E+01-2.24984E+01-4.40276E-12 1.65001E-12 7.81662E+00
 -1        12 2.30610E+00 1.68722E+00-1.05134E+01-1.36379E-01 6.87195E+00 6.51799E+00
 -1        13 1.30998E-04 1.85097E-04-2.20436E+01-1.28926E-04 4.53441E+00-1.23472E+00
 -1        14 1.30998E-04 1.85097E-04-2.20436E+01 1.28926E-04-4.53441E+00-1.23472E+00
 -1        15-1.00827E+01-8.92784E+00-2.20432E+01-4.97118E-01-9.40842E+00-1.07391E+00
 -1        16-1.00827E+01-8.92784E+00-2.20432E+01 4.97118E-01 9.40842E+00-1.07391E+00
 -1        17 5.41212E-04 8.31685E-05-2.60091E+01 3.88578E-16-1.27853E-12-6.13138E+00
 -1        18 2.11248E+00 2.09387E+00-1.45073E+01-6.99180E-01-6.65822E+00-7.50803E+00
 -1        19-1.02665E+01-9.21894E+00-2.09295E+01-4.32654E-13 8.53539E-13-1.07819E+01
 -1        20 2.11248E+00 2.09387E+00-1.45073E+01 6.99180E-01 6.65822E+00-7.50803E+00
 -1        21-1.03739E+01-9.40808E+00-1.21481E+02 1.76351E-01 1.26469E+01 4.45892E+00
 -1        22-1.03739E+01-9.40808E+00-1.21481E+02-1.76351E-01-1.26469E+01 4.45892E+00
 -1        23 3.73194E-03 1.98501E-04-1.14505E+02 2.74769E-04 5.33600E+00 4.69555E+00
 -1        24 3.73194E-03 1.98501E-04-1.14505E+02-2.74769E-04-5.33600E+00 4.69555E+00
 -1        25-5.88289E+00-6.13446E+00-9.68903E+01-3.38848E+00 1.00424E+01-1.02218E+01
 -1        26-5.88289E+00-6.13446E+00-9.68903E+01 3.38848E+00-1.00424E+01-1.02218E+01
 -1        27 1.71858E-03 1.78448E-04-1.03856E+02 2.40786E-04 3.84861E+00 9.58545E+00
 -1        28 1.71858E-03 1.78448E-04-1.03856E+02-2.40786E-04-3.84861E+00 9.58545E+00
 -1        29-1.15426E+01-9.40943E+00-1.15360E+02-5.89126E-12-6.22237E-11 4.63918E+00
 -1        30-7.90916E+00-1.84642E+00-1.18003E+02-6.21688E-01-3.65590E+00 3.70563E+00
 -1        31 3.25563E-03 1.25873E-04-1.08381E+02 7.23900E-15 1.60101E-11 4.83509E+00
 -1        32-7.90916E+00-1.84642E+00-1.18003E+02 6.21688E-01 3.65590E+00 3.70563E+00
 -1        33-8.12882E+00-8.38459E+00-1.01592E+02-1.60620E+00 1.14983E+01-3.16132E+00
 -1        34-8.12882E+00-8.38459E+00-1.01592E+02 1.60620E+00-1.14983E+01-3.16132E+00
 -1        35 2.02535E-03-1.63130E-04-1.01586E+02 2.03090E-04 4.43934E+00 6.86121E+00
 -1        36 2.02535E-03-1.63130E-04-1.01586E+02-2.03090E-04-4.43934E+00 6.86121E+00
 -1        37-7.05159E+00-6.13539E+00-9.06838E+01 1.57560E-11-3.01613E-11-1.06249E+01
 -1        38-5.66457E+00-2.34316E+00-1.00384E+02 1.16047E+00-3.09672E+00-1.18956E+00
 -1        39 1.06049E-03 5.61391E-05-9.76491E+01 1.22749E-14 1.91542E-11 9.14122E+00
 -1        40-5.66457E+00-2.34316E+00-1.00384E+02-1.16047E+00 3.09672E+00-1.18956E+00
 -3
    1PSTEP                         3           1           1          
  100CL  101 1.000000000           8                     0    1           1
 -4  CONTACT     6    1
 -5  COPEN       1    1    0    0
 -5  CSLIP1      1    1    0    0
 -5  CSLIP2      1    1    0    0
 -5  CPRESS      1    1    0    0
 -5  CSHEAR1     1    1    0    0
 -5  CSHEAR2     1    1    0    0
 -1        37-4.53543E-07 0.00000E+00-4.81092E-26 1.00975E+02-1.27848E+01 3.83032E-12
 -1        34-4.73568E-07-1.93870E-26 4.65031E-26 1.06622E+02-3.83030E+00-9.65918E+00
 -1        33-4.73568E-07-1.09860E-25 2.71160E-26 1.06622E+02-3.83030E+00 9.65918E+00
 -1        29-4.76878E-07-5.16988E-26-4.45107E-26 1.10263E+02 8.82310E-02-1.25814E-11
 -1        26-1.45470E-07-5.80440E-08-4.06769E-08 1.16376E+02-1.90606E+01-1.33576E+01
 -1        25-1.45470E-07-5.80440E-08 4.06769E-08 1.16376E+02-1.90606E+01 1.33576E+01
 -1        22-1.65743E-07-4.03897E-28-7.89305E-27 1.32595E+02 6.85742E-01-1.73158E+01
 -1        21-1.65743E-07-3.87741E-26-1.21340E-26 1.32595E+02 6.85742E-01 1.73158E+01
 -3
 9999
