    1C
    1UUSER                                                              
    1UDATE              02.july.2020                                    
    1UTIME              11:54:08                                        
    1UHOST                                                              
    1UPGM               CalculiX                                        
    1UVERSION           Version DEVELOPMENT                             
    1UCOMPILETIME       Thu Jul  2 09:44:20 CEST 2020                    
    1UDIR                                                               
    1UDBN                                                               
    1UMAT    1EL                                                        
    1UMAT    2SI1                                                       
    2C                            40                                     1
 -1         1 1.00000E+00 1.00000E+00 0.00000E+00
 -1         2 1.00000E+00 0.00000E+00 0.00000E+00
 -1         3 1.00000E+00 0.00000E+00 1.00000E+00
 -1         4 1.00000E+00 1.00000E+00 1.00000E+00
 -1         5 0.00000E+00 1.00000E+00 0.00000E+00
 -1         6 0.00000E+00 0.00000E+00 0.00000E+00
 -1         7 0.00000E+00 0.00000E+00 1.00000E+00
 -1         8 0.00000E+00 1.00000E+00 1.00000E+00
 -1         9 1.00000E+00 5.00000E-01 0.00000E+00
 -1        10 1.00000E+00 0.00000E+00 5.00000E-01
 -1        11 1.00000E+00 5.00000E-01 1.00000E+00
 -1        12 1.00000E+00 1.00000E+00 5.00000E-01
 -1        13 5.00000E-01 1.00000E+00 0.00000E+00
 -1        14 5.00000E-01 0.00000E+00 0.00000E+00
 -1        15 5.00000E-01 0.00000E+00 1.00000E+00
 -1        16 5.00000E-01 1.00000E+00 1.00000E+00
 -1        17 0.00000E+00 5.00000E-01 0.00000E+00
 -1        18 0.00000E+00 0.00000E+00 5.00000E-01
 -1        19 0.00000E+00 5.00000E-01 1.00000E+00
 -1        20 0.00000E+00 1.00000E+00 5.00000E-01
 -1        21 7.50000E-01 7.50000E-01 1.00000E+00
 -1        22 7.50000E-01 2.50000E-01 1.00000E+00
 -1        23 7.50000E-01 2.50000E-01 1.50000E+00
 -1        24 7.50000E-01 7.50000E-01 1.50000E+00
 -1        25 2.50000E-01 7.50000E-01 1.00000E+00
 -1        26 2.50000E-01 2.50000E-01 1.00000E+00
 -1        27 2.50000E-01 2.50000E-01 1.50000E+00
 -1        28 2.50000E-01 7.50000E-01 1.50000E+00
 -1        29 7.50000E-01 5.00000E-01 1.00000E+00
 -1        30 7.50000E-01 2.50000E-01 1.25000E+00
 -1        31 7.50000E-01 5.00000E-01 1.50000E+00
 -1        32 7.50000E-01 7.50000E-01 1.25000E+00
 -1        33 5.00000E-01 7.50000E-01 1.00000E+00
 -1        34 5.00000E-01 2.50000E-01 1.00000E+00
 -1        35 5.00000E-01 2.50000E-01 1.50000E+00
 -1        36 5.00000E-01 7.50000E-01 1.50000E+00
 -1        37 2.50000E-01 5.00000E-01 1.00000E+00
 -1        38 2.50000E-01 2.50000E-01 1.25000E+00
 -1        39 2.50000E-01 5.00000E-01 1.50000E+00
 -1        40 2.50000E-01 7.50000E-01 1.25000E+00
 -3
    3C                             2                                     1
 -1         1    4    0    1
 -2         1         2         3         4         5         6         7         8         9        10
 -2        11        12        13        14        15        16        17        18        19        20
 -1         2    4    0    1
 -2        21        22        23        24        25        26        27        28        29        30
 -2        31        32        33        34        35        36        37        38        39        40
 -3
    1PSTEP                         1           1           1          
  100CL  101 1.000000000          40                     0    1           1
 -4  DISP        4    1
 -5  D1          1    2    1    0
 -5  D2          1    2    2    0
 -5  D3          1    2    3    0
 -5  ALL         1    2    0    0    1ALL
 -1         1 0.00000E+00 0.00000E+00 0.00000E+00
 -1         2 0.00000E+00 0.00000E+00 0.00000E+00
 -1         3-2.74682E-05 2.74682E-05-5.53299E-05
 -1         4-2.74682E-05-2.74682E-05-5.53299E-05
 -1         5 0.00000E+00 0.00000E+00 0.00000E+00
 -1         6 0.00000E+00 0.00000E+00 0.00000E+00
 -1         7 2.74682E-05 2.74682E-05-5.53299E-05
 -1         8 2.74682E-05-2.74682E-05-5.53299E-05
 -1         9 0.00000E+00 0.00000E+00 0.00000E+00
 -1        10 5.37923E-06-5.37923E-06-2.76639E-05
 -1        11-2.73490E-05 4.00662E-17-1.03137E-04
 -1        12 5.37923E-06 5.37923E-06-2.76639E-05
 -1        13 0.00000E+00 0.00000E+00 0.00000E+00
 -1        14 0.00000E+00 0.00000E+00 0.00000E+00
 -1        15-5.57183E-18 2.73490E-05-1.03137E-04
 -1        16-6.54128E-18-2.73490E-05-1.03137E-04
 -1        17 0.00000E+00 0.00000E+00 0.00000E+00
 -1        18-5.37923E-06-5.37923E-06-2.76639E-05
 -1        19 2.73490E-05 4.10613E-17-1.03137E-04
 -1        20-5.37923E-06 5.37923E-06-2.76639E-05
 -1        21 3.43907E-06 3.43907E-06-1.40321E-04
 -1        22 3.43907E-06-3.43907E-06-1.40321E-04
 -1        23 0.00000E+00 0.00000E+00-3.96392E-04
 -1        24 0.00000E+00 0.00000E+00-3.96392E-04
 -1        25-3.43907E-06 3.43907E-06-1.40321E-04
 -1        26-3.43907E-06-3.43907E-06-1.40321E-04
 -1        27 0.00000E+00 0.00000E+00-3.96392E-04
 -1        28 0.00000E+00 0.00000E+00-3.96392E-04
 -1        29 3.43934E-06 7.87481E-17-1.49813E-04
 -1        30-1.76164E-06 1.76164E-06-2.68356E-04
 -1        31 0.00000E+00 0.00000E+00-3.92530E-04
 -1        32-1.76164E-06-1.76164E-06-2.68356E-04
 -1        33-1.42639E-17 3.43934E-06-1.49813E-04
 -1        34-8.76209E-18-3.43934E-06-1.49813E-04
 -1        35 0.00000E+00 0.00000E+00-3.92530E-04
 -1        36 0.00000E+00 0.00000E+00-3.92530E-04
 -1        37-3.43934E-06 8.42373E-17-1.49813E-04
 -1        38 1.76164E-06 1.76164E-06-2.68356E-04
 -1        39 0.00000E+00 0.00000E+00-3.92530E-04
 -1        40 1.76164E-06-1.76164E-06-2.68356E-04
 -3
    1PSTEP                         2           1           1          
  100CL  101 1.000000000          40                     0    1           1
 -4  STRESS      6    1
 -5  SXX         1    4    1    1
 -5  SYY         1    4    2    2
 -5  SZZ         1    4    3    3
 -5  SXY         1    4    1    2
 -5  SYZ         1    4    2    3
 -5  SZX         1    4    3    1
 -1         1 8.19469E-05 8.19469E-05-1.16183E+01 5.06819E-04 5.14253E+00 5.14253E+00
 -1         2 8.19469E-05 8.19469E-05-1.16183E+01-5.06819E-04-5.14253E+00 5.14253E+00
 -1         3-1.15357E+01-1.15357E+01-1.16126E+01 9.81525E-02-9.16648E+00 9.16648E+00
 -1         4-1.15357E+01-1.15357E+01-1.16126E+01-9.81525E-02 9.16648E+00 9.16648E+00
 -1         5 8.19469E-05 8.19469E-05-1.16183E+01-5.06819E-04 5.14253E+00-5.14253E+00
 -1         6 8.19469E-05 8.19469E-05-1.16183E+01 5.06819E-04-5.14253E+00-5.14253E+00
 -1         7-1.15357E+01-1.15357E+01-1.16126E+01-9.81525E-02-9.16648E+00-9.16648E+00
 -1         8-1.15357E+01-1.15357E+01-1.16126E+01 9.81525E-02 9.16648E+00-9.16648E+00
 -1         9 2.30369E-04 1.13437E-04-2.16557E+01 5.30825E-16 1.41853E-12 5.15454E+00
 -1        10 2.26034E+00 2.26034E+00-1.16166E+01 4.94850E-02-7.15516E+00 7.15516E+00
 -1        11-1.14860E+01-1.15376E+01-2.16555E+01-8.05577E-13 1.65234E-12 9.17909E+00
 -1        12 2.26034E+00 2.26034E+00-1.16166E+01-4.94850E-02 7.15516E+00 7.15516E+00
 -1        13 1.13437E-04 2.30369E-04-2.16557E+01-8.16187E-16 5.15454E+00-1.20792E-13
 -1        14 1.13437E-04 2.30369E-04-2.16557E+01 6.54858E-16-5.15454E+00-3.15303E-13
 -1        15-1.15376E+01-1.14860E+01-2.16555E+01-8.90586E-13-9.17909E+00-1.27587E-12
 -1        16-1.15376E+01-1.14860E+01-2.16555E+01 4.83650E-13 9.17909E+00-8.94396E-13
 -1        17 2.30369E-04 1.13437E-04-2.16557E+01-2.15106E-16 1.22435E-12-5.15454E+00
 -1        18 2.26034E+00 2.26034E+00-1.16166E+01-4.94850E-02-7.15516E+00-7.15516E+00
 -1        19-1.14860E+01-1.15376E+01-2.16555E+01 3.99424E-13 1.26299E-12-9.17909E+00
 -1        20 2.26034E+00 2.26034E+00-1.16166E+01 4.94850E-02 7.15516E+00-7.15516E+00
 -1        21 2.89051E+00 2.89051E+00-1.07459E+02-1.57117E-04 4.32625E+00 4.32625E+00
 -1        22 2.89051E+00 2.89051E+00-1.07459E+02 1.57117E-04-4.32625E+00 4.32625E+00
 -1        23-4.76930E-05-4.76930E-05-1.07463E+02-5.65667E-05 1.04276E+00-1.04276E+00
 -1        24-4.76930E-05-4.76930E-05-1.07463E+02 5.65667E-05-1.04276E+00-1.04276E+00
 -1        25 2.89051E+00 2.89051E+00-1.07459E+02 1.57117E-04 4.32625E+00-4.32625E+00
 -1        26 2.89051E+00 2.89051E+00-1.07459E+02-1.57117E-04-4.32625E+00-4.32625E+00
 -1        27-4.76930E-05-4.76930E-05-1.07463E+02 5.65667E-05 1.04276E+00 1.04276E+00
 -1        28-4.76930E-05-4.76930E-05-1.07463E+02-5.65667E-05-1.04276E+00 1.04276E+00
 -1        29 2.89069E+00 2.89024E+00-1.01869E+02 7.69896E-12 1.89895E-11 4.32622E+00
 -1        30-1.48047E+00-1.48047E+00-1.07474E+02 2.00472E-04-1.64167E+00 1.64167E+00
 -1        31-2.87044E-05 4.85146E-06-1.01872E+02 6.51510E-16-2.32340E-12-1.04279E+00
 -1        32-1.48047E+00-1.48047E+00-1.07474E+02-2.00472E-04 1.64167E+00 1.64167E+00
 -1        33 2.89024E+00 2.89069E+00-1.01869E+02 1.59741E-11 4.32622E+00 2.58335E-11
 -1        34 2.89024E+00 2.89069E+00-1.01869E+02-2.05905E-11-4.32622E+00 3.21358E-11
 -1        35 4.85146E-06-2.87044E-05-1.01872E+02-1.08849E-15 1.04279E+00-1.15580E-11
 -1        36 4.85146E-06-2.87044E-05-1.01872E+02 4.17280E-16-1.04279E+00-1.42324E-11
 -1        37 2.89069E+00 2.89024E+00-1.01869E+02-1.23172E-11 2.52150E-11-4.32622E+00
 -1        38-1.48047E+00-1.48047E+00-1.07474E+02-2.00472E-04-1.64167E+00-1.64167E+00
 -1        39-2.87044E-05 4.85146E-06-1.01872E+02-3.43035E-16 3.43975E-13 1.04279E+00
 -1        40-1.48047E+00-1.48047E+00-1.07474E+02 2.00472E-04 1.64167E+00-1.64167E+00
 -3
    1PSTEP                         3           1           1          
  100CL  101 1.000000000          40                     0    1           1
 -4  CONTACT     6    1
 -5  COPEN       1    4    1    1
 -5  CSLIP1      1    4    2    2
 -5  CSLIP2      1    4    3    3
 -5  CPRESS      1    4    1    2
 -5  CSHEAR1     1    4    2    3
 -5  CSHEAR2     1    4    3    1
 -1         1 0.00000E+00 0.00000E+00 0.00000E+00 0.00000E+00 0.00000E+00 0.00000E+00
 -1         2 0.00000E+00 0.00000E+00 0.00000E+00 0.00000E+00 0.00000E+00 0.00000E+00
 -1         3 0.00000E+00 0.00000E+00 0.00000E+00 0.00000E+00 0.00000E+00 0.00000E+00
 -1         4 0.00000E+00 0.00000E+00 0.00000E+00 0.00000E+00 0.00000E+00 0.00000E+00
 -1         5 0.00000E+00 0.00000E+00 0.00000E+00 0.00000E+00 0.00000E+00 0.00000E+00
 -1         6 0.00000E+00 0.00000E+00 0.00000E+00 0.00000E+00 0.00000E+00 0.00000E+00
 -1         7 0.00000E+00 0.00000E+00 0.00000E+00 0.00000E+00 0.00000E+00 0.00000E+00
 -1         8 0.00000E+00 0.00000E+00 0.00000E+00 0.00000E+00 0.00000E+00 0.00000E+00
 -1         9 0.00000E+00 0.00000E+00 0.00000E+00 0.00000E+00 0.00000E+00 0.00000E+00
 -1        10 0.00000E+00 0.00000E+00 0.00000E+00 0.00000E+00 0.00000E+00 0.00000E+00
 -1        11 0.00000E+00 0.00000E+00 0.00000E+00 0.00000E+00 0.00000E+00 0.00000E+00
 -1        12 0.00000E+00 0.00000E+00 0.00000E+00 0.00000E+00 0.00000E+00 0.00000E+00
 -1        13 0.00000E+00 0.00000E+00 0.00000E+00 0.00000E+00 0.00000E+00 0.00000E+00
 -1        14 0.00000E+00 0.00000E+00 0.00000E+00 0.00000E+00 0.00000E+00 0.00000E+00
 -1        15 0.00000E+00 0.00000E+00 0.00000E+00 0.00000E+00 0.00000E+00 0.00000E+00
 -1        16 0.00000E+00 0.00000E+00 0.00000E+00 0.00000E+00 0.00000E+00 0.00000E+00
 -1        17 0.00000E+00 0.00000E+00 0.00000E+00 0.00000E+00 0.00000E+00 0.00000E+00
 -1        18 0.00000E+00 0.00000E+00 0.00000E+00 0.00000E+00 0.00000E+00 0.00000E+00
 -1        19 0.00000E+00 0.00000E+00 0.00000E+00 0.00000E+00 0.00000E+00 0.00000E+00
 -1        20 0.00000E+00 0.00000E+00 0.00000E+00 0.00000E+00 0.00000E+00 0.00000E+00
 -1        21-1.00327E-05 1.60949E-05 1.60949E-05 1.00327E+02 1.60949E+00 1.60949E+00
 -1        22-1.00327E-05 1.60949E-05-1.60949E-05 1.00327E+02 1.60949E+00-1.60949E+00
 -1        23 0.00000E+00 0.00000E+00 0.00000E+00 0.00000E+00 0.00000E+00 0.00000E+00
 -1        24 0.00000E+00 0.00000E+00 0.00000E+00 0.00000E+00 0.00000E+00 0.00000E+00
 -1        25-1.00327E-05-1.60949E-05 1.60949E-05 1.00327E+02-1.60949E+00 1.60949E+00
 -1        26-1.00327E-05-1.60949E-05-1.60949E-05 1.00327E+02-1.60949E+00-1.60949E+00
 -1        27 0.00000E+00 0.00000E+00 0.00000E+00 0.00000E+00 0.00000E+00 0.00000E+00
 -1        28 0.00000E+00 0.00000E+00 0.00000E+00 0.00000E+00 0.00000E+00 0.00000E+00
 -1        29-1.00327E-05 1.60949E-05 3.79386E-17 1.00327E+02 1.60949E+00 3.79385E-12
 -1        30 0.00000E+00 0.00000E+00 0.00000E+00 0.00000E+00 0.00000E+00 0.00000E+00
 -1        31 0.00000E+00 0.00000E+00 0.00000E+00 0.00000E+00 0.00000E+00 0.00000E+00
 -1        32 0.00000E+00 0.00000E+00 0.00000E+00 0.00000E+00 0.00000E+00 0.00000E+00
 -1        33-1.00327E-05-7.10661E-18 1.60949E-05 1.00327E+02-7.10765E-13 1.60949E+00
 -1        34-1.00327E-05-7.10661E-18-1.60949E-05 1.00327E+02-7.10765E-13-1.60949E+00
 -1        35 0.00000E+00 0.00000E+00 0.00000E+00 0.00000E+00 0.00000E+00 0.00000E+00
 -1        36 0.00000E+00 0.00000E+00 0.00000E+00 0.00000E+00 0.00000E+00 0.00000E+00
 -1        37-1.00327E-05-1.60949E-05 3.79386E-17 1.00327E+02-1.60949E+00 3.79385E-12
 -1        38 0.00000E+00 0.00000E+00 0.00000E+00 0.00000E+00 0.00000E+00 0.00000E+00
 -1        39 0.00000E+00 0.00000E+00 0.00000E+00 0.00000E+00 0.00000E+00 0.00000E+00
 -1        40 0.00000E+00 0.00000E+00 0.00000E+00 0.00000E+00 0.00000E+00 0.00000E+00
 -3
    1PSTEP                         4           1           1          
  100CL  101 1.000000000          40                     0    1           1
 -4  ERROR       1    1
 -5  STR(%)      1    1    0    0
 -1         1 3.24478E+00
 -1         2 3.24478E+00
 -1         3 3.24478E+00
 -1         4 3.24478E+00
 -1         5 3.24478E+00
 -1         6 3.24478E+00
 -1         7 3.24478E+00
 -1         8 3.24478E+00
 -1         9 3.24478E+00
 -1        10 3.24478E+00
 -1        11 3.24478E+00
 -1        12 3.24478E+00
 -1        13 3.24478E+00
 -1        14 3.24478E+00
 -1        15 3.24478E+00
 -1        16 3.24478E+00
 -1        17 3.24478E+00
 -1        18 3.24478E+00
 -1        19 3.24478E+00
 -1        20 3.24478E+00
 -1        21 3.41127E-01
 -1        22 3.41127E-01
 -1        23 3.41127E-01
 -1        24 3.41127E-01
 -1        25 3.41127E-01
 -1        26 3.41127E-01
 -1        27 3.41127E-01
 -1        28 3.41127E-01
 -1        29 3.41127E-01
 -1        30 3.41127E-01
 -1        31 3.41127E-01
 -1        32 3.41127E-01
 -1        33 3.41127E-01
 -1        34 3.41127E-01
 -1        35 3.41127E-01
 -1        36 3.41127E-01
 -1        37 3.41127E-01
 -1        38 3.41127E-01
 -1        39 3.41127E-01
 -1        40 3.41127E-01
 -3
 9999
