    1C
    1UUSER                                                              
    1UDATE              19.july.2022                                    
    1UTIME              21:27:00                                        
    1UHOST                                                              
    1UPGM               CalculiX                                        
    1UVERSION           Version DEVELOPMENT                             
    1UCOMPILETIME       Tue Jul 19 21:11:38 CEST 2022                    
    1UDIR                                                               
    1UDBN                                                               
    1UMAT    1EL                                                        
    2C                            40                                     1
 -1         1 1.00000E+00 1.00000E+00 0.00000E+00
 -1         2 1.00000E+00 0.00000E+00 0.00000E+00
 -1         3 1.00000E+00 0.00000E+00 1.00000E+00
 -1         4 1.00000E+00 1.00000E+00 1.00000E+00
 -1         5 0.00000E+00 1.00000E+00 0.00000E+00
 -1         6 0.00000E+00 0.00000E+00 0.00000E+00
 -1         7 0.00000E+00 0.00000E+00 1.00000E+00
 -1         8 0.00000E+00 1.00000E+00 1.00000E+00
 -1         9 1.00000E+00 5.00000E-01 0.00000E+00
 -1        10 1.00000E+00 0.00000E+00 5.00000E-01
 -1        11 1.00000E+00 5.00000E-01 1.00000E+00
 -1        12 1.00000E+00 1.00000E+00 5.00000E-01
 -1        13 5.00000E-01 1.00000E+00 0.00000E+00
 -1        14 5.00000E-01 0.00000E+00 0.00000E+00
 -1        15 5.00000E-01 0.00000E+00 1.00000E+00
 -1        16 5.00000E-01 1.00000E+00 1.00000E+00
 -1        17 0.00000E+00 5.00000E-01 0.00000E+00
 -1        18 0.00000E+00 0.00000E+00 5.00000E-01
 -1        19 0.00000E+00 5.00000E-01 1.00000E+00
 -1        20 0.00000E+00 1.00000E+00 5.00000E-01
 -1        21 1.00000E+00 1.00000E+00 2.00000E+00
 -1        22 1.00000E+00 0.00000E+00 2.00000E+00
 -1        23 1.00000E+00 0.00000E+00 3.00000E+00
 -1        24 1.00000E+00 1.00000E+00 3.00000E+00
 -1        25 0.00000E+00 1.00000E+00 2.00000E+00
 -1        26 0.00000E+00 0.00000E+00 2.00000E+00
 -1        27 0.00000E+00 0.00000E+00 3.00000E+00
 -1        28 0.00000E+00 1.00000E+00 3.00000E+00
 -1        29 1.00000E+00 5.00000E-01 2.00000E+00
 -1        30 1.00000E+00 0.00000E+00 2.50000E+00
 -1        31 1.00000E+00 5.00000E-01 3.00000E+00
 -1        32 1.00000E+00 1.00000E+00 2.50000E+00
 -1        33 5.00000E-01 1.00000E+00 2.00000E+00
 -1        34 5.00000E-01 0.00000E+00 2.00000E+00
 -1        35 5.00000E-01 0.00000E+00 3.00000E+00
 -1        36 5.00000E-01 1.00000E+00 3.00000E+00
 -1        37 0.00000E+00 5.00000E-01 2.00000E+00
 -1        38 0.00000E+00 0.00000E+00 2.50000E+00
 -1        39 0.00000E+00 5.00000E-01 3.00000E+00
 -1        40 0.00000E+00 1.00000E+00 2.50000E+00
 -3
    3C                             2                                     1
 -1         1    4    0    1
 -2         1         2         3         4         5         6         7         8         9        10
 -2        11        12        13        14        15        16        17        18        19        20
 -1         2    4    0    1
 -2        21        22        23        24        25        26        27        28        29        30
 -2        31        32        33        34        35        36        37        38        39        40
 -3
    1PSTEP                         1           1           1          
  100CL  101 1.00000E-04          40                     1    1           1
 -4  ENER        1    1
 -5  ENER        1    1    0    0
 -1         1 2.27849E-34
 -1         2 6.38510E-35
 -1         3 7.18771E-34
 -1         4-9.01638E-35
 -1         5 7.60022E-34
 -1         6-1.15834E-34
 -1         7 1.13444E-34
 -1         8 1.84009E-34
 -1         9 1.70930E-34
 -1        10 1.35134E-34
 -1        11 2.29040E-34
 -1        12 4.92922E-35
 -1        13 8.38292E-35
 -1        14 1.57050E-34
 -1        15 7.92922E-35
 -1        16 3.98611E-34
 -1        17 1.31126E-34
 -1        18 1.97736E-34
 -1        19 5.24552E-35
 -1        20 1.43923E-34
 -1        21 3.77191E-34
 -1        22 1.83747E-33
 -1        23 2.84291E-34
 -1        24 2.11598E-35
 -1        25 6.81658E-35
 -1        26 5.45449E-34
 -1        27-3.68057E-35
 -1        28 3.85459E-34
 -1        29 2.20050E-34
 -1        30 6.38706E-34
 -1        31 4.30731E-34
 -1        32 8.05118E-35
 -1        33 7.35678E-34
 -1        34 3.02687E-34
 -1        35 9.70424E-35
 -1        36-2.80091E-35
 -1        37 3.99459E-34
 -1        38 3.75625E-34
 -1        39 1.31768E-34
 -1        40-8.66893E-35
 -3
    1PSTEP                         2           2           1          
  100CL  102 2.00000E-04          40                     1    2           1
 -4  ENER        1    1
 -5  ENER        1    1    0    0
 -1         1-2.77052E-33
 -1         2 1.29568E-32
 -1         3 3.94732E-33
 -1         4-1.99661E-33
 -1         5 1.21097E-33
 -1         6 6.21133E-33
 -1         7 1.80649E-32
 -1         8 1.89621E-32
 -1         9 7.59813E-33
 -1        10 4.75435E-33
 -1        11-1.18479E-33
 -1        12-9.84534E-34
 -1        13 2.85702E-33
 -1        14 3.01431E-34
 -1        15 4.64781E-33
 -1        16 1.66343E-32
 -1        17 1.70402E-32
 -1        18 5.94705E-33
 -1        19 4.96383E-33
 -1        20-2.62593E-33
 -1        21 7.04187E-34
 -1        22 4.61102E-33
 -1        23 6.42756E-33
 -1        24-1.72359E-34
 -1        25 1.96482E-33
 -1        26-1.08545E-33
 -1        27 5.54763E-33
 -1        28-3.66037E-34
 -1        29 7.14349E-34
 -1        30 2.41876E-33
 -1        31 2.10553E-33
 -1        32 4.99742E-33
 -1        33-1.84876E-33
 -1        34 5.42697E-34
 -1        35 1.11187E-33
 -1        36 5.96590E-34
 -1        37 4.58661E-33
 -1        38 3.86715E-33
 -1        39 1.88939E-33
 -1        40 1.28543E-34
 -3
    1PSTEP                         3           3           1          
  100CL  103 3.50000E-04          40                     1    3           1
 -4  ENER        1    1
 -5  ENER        1    1    0    0
 -1         1 7.12096E-32
 -1         2 1.33346E-31
 -1         3 3.90250E-32
 -1         4 2.46020E-32
 -1         5 5.32751E-32
 -1         6 5.69843E-33
 -1         7 2.08111E-32
 -1         8-2.60047E-32
 -1         9 6.49546E-32
 -1        10 2.41806E-32
 -1        11 4.19805E-32
 -1        12 2.59082E-32
 -1        13 2.61855E-32
 -1        14 5.83673E-32
 -1        15 3.91333E-33
 -1        16 6.79903E-34
 -1        17 7.04384E-33
 -1        18 5.48241E-33
 -1        19 4.67327E-32
 -1        20 8.14579E-33
 -1        21 2.86850E-32
 -1        22 2.18945E-32
 -1        23 1.83274E-32
 -1        24-1.77323E-32
 -1        25 1.03764E-31
 -1        26 5.53043E-33
 -1        27 6.87126E-33
 -1        28 6.56253E-32
 -1        29 2.09571E-32
 -1        30-5.97733E-33
 -1        31 1.71162E-32
 -1        32 5.75005E-33
 -1        33 1.90584E-32
 -1        34 1.25735E-32
 -1        35 1.59144E-32
 -1        36 6.39469E-32
 -1        37 3.35203E-32
 -1        38 1.81284E-32
 -1        39-2.84578E-33
 -1        40 2.74320E-32
 -3
    1PSTEP                         4           4           1          
  100CL  104 5.75000E-04          40                     1    4           1
 -4  ENER        1    1
 -5  ENER        1    1    0    0
 -1         1-3.97116E-32
 -1         2 4.38075E-32
 -1         3 8.45980E-31
 -1         4 2.32161E-31
 -1         5 1.39031E-30
 -1         6-6.62859E-32
 -1         7 2.34546E-32
 -1         8 1.65641E-31
 -1         9 1.41248E-31
 -1        10 1.39931E-31
 -1        11 2.07058E-31
 -1        12 2.27753E-31
 -1        13 2.18084E-31
 -1        14 3.92905E-31
 -1        15 4.63166E-32
 -1        16 2.09698E-31
 -1        17 1.56899E-31
 -1        18 8.17323E-32
 -1        19 3.16321E-31
 -1        20 2.85071E-31
 -1        21 7.54021E-31
 -1        22 3.21381E-31
 -1        23 1.07231E-30
 -1        24-6.62806E-32
 -1        25 3.27207E-31
 -1        26 2.78376E-32
 -1        27 3.60529E-31
 -1        28 2.76078E-32
 -1        29 2.64371E-31
 -1        30 3.88423E-31
 -1        31 1.78317E-31
 -1        32 2.00676E-31
 -1        33 1.92089E-31
 -1        34 2.89944E-31
 -1        35 2.50132E-31
 -1        36 2.97937E-31
 -1        37 2.01369E-31
 -1        38 7.85686E-32
 -1        39 1.54459E-31
 -1        40 8.81123E-32
 -3
    1PSTEP                         5           5           1          
  100CL  105 9.12500E-04          40                     1    5           1
 -4  ENER        1    1
 -5  ENER        1    1    0    0
 -1         1-5.01701E-31
 -1         2-9.65411E-31
 -1         3 4.64695E-30
 -1         4 6.25689E-30
 -1         5 3.25923E-31
 -1         6-3.95248E-31
 -1         7 2.82120E-30
 -1         8 5.79739E-31
 -1         9 4.08058E-30
 -1        10 1.65786E-31
 -1        11 1.61576E-30
 -1        12-5.59575E-32
 -1        13 3.20174E-32
 -1        14 2.77115E-31
 -1        15 2.36391E-30
 -1        16 1.97914E-30
 -1        17-1.25460E-32
 -1        18 1.16900E-30
 -1        19 8.11259E-31
 -1        20 8.82794E-31
 -1        21 1.03924E-29
 -1        22 2.20113E-30
 -1        23-4.89963E-31
 -1        24-1.11586E-30
 -1        25-6.51143E-31
 -1        26-6.19414E-31
 -1        27-1.04562E-30
 -1        28 7.33582E-30
 -1        29 2.74420E-30
 -1        30 3.09392E-31
 -1        31 1.15728E-30
 -1        32 2.32963E-30
 -1        33 1.48832E-30
 -1        34 8.81640E-31
 -1        35 1.19568E-30
 -1        36 1.35687E-30
 -1        37 1.56720E-30
 -1        38-4.67088E-31
 -1        39 1.35849E-30
 -1        40 1.71353E-30
 -3
    1PSTEP                         6           6           1          
  100CL  106 1.41875E-03          40                     1    6           1
 -4  ENER        1    1
 -5  ENER        1    1    0    0
 -1         1-3.07137E-30
 -1         2 1.14054E-30
 -1         3 4.65578E-30
 -1         4 8.12250E-30
 -1         5 3.08498E-29
 -1         6 1.66340E-29
 -1         7 2.33719E-29
 -1         8 2.52935E-29
 -1         9 8.78378E-30
 -1        10 4.94388E-30
 -1        11 5.43920E-30
 -1        12 2.25490E-30
 -1        13 1.25743E-29
 -1        14 1.69802E-30
 -1        15 1.60140E-29
 -1        16 6.33803E-30
 -1        17 1.03372E-29
 -1        18 9.29753E-30
 -1        19 9.88751E-30
 -1        20 1.25847E-29
 -1        21 6.17899E-30
 -1        22 4.06505E-30
 -1        23 1.30319E-29
 -1        24-1.55216E-30
 -1        25 1.21121E-29
 -1        26 1.28569E-29
 -1        27 4.44782E-30
 -1        28-8.09592E-30
 -1        29 1.07498E-29
 -1        30 3.12708E-30
 -1        31 1.15104E-30
 -1        32-6.77100E-30
 -1        33 4.42902E-30
 -1        34 9.06248E-30
 -1        35-4.06748E-30
 -1        36 2.59623E-29
 -1        37-4.73464E-31
 -1        38 1.60259E-29
 -1        39-3.01135E-30
 -1        40-1.23596E-30
 -3
    1PSTEP                         7           7           1          
  100CL  107 2.17813E-03          40                     1    7           1
 -4  ENER        1    1
 -5  ENER        1    1    0    0
 -1         1 9.45782E-29
 -1         2 1.88396E-29
 -1         3 9.16101E-30
 -1         4 1.75996E-28
 -1         5 4.35633E-29
 -1         6 3.69262E-29
 -1         7-4.88800E-29
 -1         8-5.11012E-29
 -1         9 8.32983E-29
 -1        10 1.86228E-29
 -1        11 2.24560E-30
 -1        12 1.94851E-29
 -1        13 6.32281E-29
 -1        14-1.11992E-31
 -1        15 5.15822E-29
 -1        16 3.01831E-30
 -1        17-1.14808E-29
 -1        18-2.40025E-29
 -1        19 7.53139E-29
 -1        20 6.59863E-29
 -1        21 5.64966E-29
 -1        22-7.13483E-29
 -1        23 1.32036E-28
 -1        24 4.04094E-28
 -1        25 8.16977E-29
 -1        26 2.10643E-28
 -1        27-7.57280E-30
 -1        28-8.30589E-29
 -1        29 1.53098E-29
 -1        30 1.70902E-28
 -1        31 6.78485E-29
 -1        32 6.49106E-29
 -1        33 8.00827E-29
 -1        34 2.11401E-29
 -1        35 1.22518E-29
 -1        36 7.13559E-29
 -1        37 4.76372E-29
 -1        38 1.00486E-30
 -1        39 1.03257E-28
 -1        40 3.96016E-29
 -3
    1PSTEP                         8           8           1          
  100CL  108 3.31719E-03          40                     1    8           1
 -4  ENER        1    1
 -5  ENER        1    1    0    0
 -1         1 2.30402E-28
 -1         2 1.13827E-28
 -1         3 2.73419E-28
 -1         4 6.04489E-28
 -1         5 7.46989E-28
 -1         6 8.84593E-29
 -1         7 1.08172E-28
 -1         8 4.80078E-28
 -1         9 1.35406E-28
 -1        10 1.65882E-28
 -1        11 4.19594E-28
 -1        12 1.74100E-28
 -1        13 2.64672E-28
 -1        14 6.61082E-29
 -1        15 6.75709E-29
 -1        16 2.64356E-28
 -1        17 2.64730E-28
 -1        18 1.43632E-28
 -1        19 2.08145E-28
 -1        20 2.56029E-28
 -1        21-4.23538E-28
 -1        22 1.59101E-30
 -1        23 1.51727E-28
 -1        24 4.76532E-28
 -1        25 8.21391E-28
 -1        26 6.09048E-28
 -1        27 2.20136E-28
 -1        28 6.05716E-28
 -1        29 3.98093E-28
 -1        30 2.76387E-28
 -1        31 1.66721E-29
 -1        32 1.30525E-28
 -1        33 3.56869E-28
 -1        34 1.78775E-29
 -1        35-6.11476E-29
 -1        36 7.42262E-29
 -1        37 2.22080E-28
 -1        38 1.89529E-28
 -1        39 9.65720E-28
 -1        40 4.85781E-29
 -3
    1PSTEP                         9           9           1          
  100CL  109 5.02578E-03          40                     1    9           1
 -4  ENER        1    1
 -5  ENER        1    1    0    0
 -1         1-2.82484E-29
 -1         2 6.88582E-27
 -1         3 2.99849E-27
 -1         4 3.11644E-27
 -1         5 1.05284E-26
 -1         6 1.01741E-27
 -1         7-6.79966E-28
 -1         8 7.17352E-29
 -1         9 3.91722E-27
 -1        10 1.38899E-27
 -1        11 9.01235E-28
 -1        12 1.43450E-27
 -1        13 2.36637E-27
 -1        14 1.53819E-27
 -1        15 1.47833E-27
 -1        16 2.93251E-27
 -1        17 2.82308E-27
 -1        18 1.62668E-27
 -1        19 1.16943E-27
 -1        20 8.60965E-28
 -1        21 5.48026E-27
 -1        22 9.45482E-28
 -1        23 8.52005E-27
 -1        24 3.67284E-27
 -1        25 9.51395E-30
 -1        26-1.56598E-27
 -1        27 3.76506E-27
 -1        28 6.33300E-28
 -1        29 1.37200E-27
 -1        30 1.87138E-27
 -1        31 4.91067E-27
 -1        32 1.40074E-27
 -1        33 1.12683E-27
 -1        34 1.18891E-27
 -1        35 2.08720E-27
 -1        36 2.03981E-27
 -1        37 8.98699E-28
 -1        38 1.33254E-27
 -1        39 1.28403E-27
 -1        40 5.29954E-28
 -3
    1PSTEP                        10          10           1          
  100CL  110 7.58867E-03          40                     1   10           1
 -4  ENER        1    1
 -5  ENER        1    1    0    0
 -1         1 1.67790E-27
 -1         2 9.56313E-27
 -1         3 4.36997E-27
 -1         4-3.47500E-27
 -1         5 5.69644E-27
 -1         6 3.21317E-27
 -1         7 1.17094E-26
 -1         8 3.79515E-26
 -1         9 6.98315E-27
 -1        10 3.79713E-28
 -1        11 1.11803E-26
 -1        12 1.17649E-27
 -1        13 1.05656E-27
 -1        14 5.45746E-27
 -1        15 8.01846E-27
 -1        16 7.45147E-27
 -1        17 1.01244E-26
 -1        18 4.12636E-27
 -1        19 6.27900E-27
 -1        20 8.14035E-27
 -1        21-3.39026E-27
 -1        22-6.16827E-27
 -1        23 1.24552E-26
 -1        24 3.19775E-27
 -1        25 2.99227E-27
 -1        26 6.09308E-27
 -1        27 9.92112E-27
 -1        28 6.40803E-28
 -1        29 2.36648E-27
 -1        30 9.21002E-28
 -1        31 1.51861E-27
 -1        32 5.17893E-27
 -1        33-3.74656E-27
 -1        34 4.41513E-27
 -1        35 7.30133E-27
 -1        36 7.57570E-27
 -1        37 4.48458E-27
 -1        38 1.33028E-27
 -1        39 8.63285E-28
 -1        40 1.77849E-27
 -3
    1PSTEP                        11          11           1          
  100CL  111 1.00000E-02          40                     1   11           1
 -4  ENER        1    1
 -5  ENER        1    1    0    0
 -1         1 1.93716E-26
 -1         2 3.59021E-26
 -1         3 3.23448E-26
 -1         4 2.33375E-26
 -1         5 2.96187E-26
 -1         6 3.34722E-26
 -1         7 1.57144E-26
 -1         8 4.83748E-26
 -1         9 1.53527E-26
 -1        10 9.11906E-27
 -1        11 2.26645E-26
 -1        12 3.40678E-26
 -1        13 7.58799E-27
 -1        14 1.53846E-26
 -1        15 1.46771E-26
 -1        16 3.35920E-26
 -1        17 1.95794E-26
 -1        18 3.09597E-26
 -1        19 1.92124E-26
 -1        20 1.39703E-26
 -1        21 3.54998E-26
 -1        22-8.58387E-27
 -1        23 9.23836E-26
 -1        24 5.95650E-26
 -1        25 2.63846E-26
 -1        26 2.34181E-26
 -1        27 2.27809E-26
 -1        28-4.56789E-27
 -1        29 2.45035E-26
 -1        30 6.25572E-26
 -1        31 6.39794E-27
 -1        32 1.31056E-26
 -1        33 1.65669E-26
 -1        34 2.72439E-27
 -1        35 1.77026E-26
 -1        36 3.29712E-26
 -1        37 2.71783E-26
 -1        38-7.49957E-27
 -1        39 4.82420E-26
 -1        40 8.96900E-28
 -3
 9999
