
                        S T E P       1


                                INCREMENT     5


 displacements (vx,vy,vz) for set NALL and time  0.9125000E-03

         1  1.364263E-20  1.538366E-20  5.415085E-05
         2  2.187435E-20 -2.303586E-20  5.415085E-05
         3 -1.771851E-20  1.815086E-20  5.415085E-05
         4 -9.772105E-21 -7.018814E-21  5.415085E-05
         5 -1.432611E-20  8.220035E-21  5.415085E-05
         6 -1.252255E-20 -5.173356E-21  5.415085E-05
         7  1.846194E-20  2.624398E-20  5.415085E-05
         8  1.131007E-20 -1.522931E-20  5.415085E-05
         9  1.777986E-20  1.858901E-21  5.415085E-05
        10 -1.972065E-22  1.482521E-21  5.415085E-05
        11 -1.375246E-20 -1.523725E-21  5.415085E-05
        12 -6.520021E-23 -9.705497E-22  5.415085E-05
        13  1.994901E-22  1.177796E-20  5.415085E-05
        14 -1.878491E-22 -1.412851E-20  5.415085E-05
        15  6.501684E-22  2.224417E-20  5.415085E-05
        16  2.323931E-23 -1.107742E-20  5.415085E-05
        17 -1.340274E-20  1.803258E-21  5.415085E-05
        18  2.244412E-21 -1.320059E-21  5.415085E-05
        19  1.487874E-20 -5.583157E-22  5.415085E-05
        20  4.181125E-23  3.567665E-21  5.415085E-05
        21 -1.158818E-20 -1.297982E-20 -5.415085E-05
        22 -8.164175E-22  3.152802E-21 -5.415085E-05
        23 -4.177930E-22 -1.134994E-21 -5.415085E-05
        24  1.349436E-20  1.470247E-20 -5.415085E-05
        25  1.560557E-20 -5.381923E-21 -5.415085E-05
        26  2.068287E-20  1.106675E-20 -5.415085E-05
        27 -3.112344E-20 -3.807404E-20 -5.415085E-05
        28 -3.060576E-21  9.457830E-21 -5.415085E-05
        29 -6.146571E-21  3.856900E-21 -5.415085E-05
        30 -1.335427E-21  4.636281E-22 -5.415085E-05
        31  6.483396E-21 -3.160431E-21 -5.415085E-05
        32  6.529401E-22 -1.996157E-22 -5.415085E-05
        33  1.827189E-21 -9.176727E-21 -5.415085E-05
        34 -6.732813E-21  7.114106E-21 -5.415085E-05
        35  5.762168E-21 -1.963407E-20 -5.415085E-05
        36 -6.033498E-22  1.205052E-20 -5.415085E-05
        37  1.819982E-20 -4.871622E-21 -5.415085E-05
        38 -6.134194E-22  2.629605E-21 -5.415085E-05
        39 -1.714680E-20  3.100767E-21 -5.415085E-05
        40  1.735170E-21 -6.566249E-21 -5.415085E-05

                                INCREMENT    10


 displacements (vx,vy,vz) for set NALL and time  0.7588672E-02

         1  3.480081E-18  3.841270E-19  3.750349E-03
         2  2.799114E-18  2.518199E-19  3.750349E-03
         3 -3.565724E-18  6.278163E-18  3.750349E-03
         4 -8.108102E-19 -5.508843E-18  3.750349E-03
         5 -1.774002E-18  2.080910E-18  3.750349E-03
         6 -3.682649E-18 -1.937631E-18  3.750349E-03
         7  1.651873E-18  2.470534E-18  3.750349E-03
         8  1.383987E-18 -2.435494E-18  3.750349E-03
         9  3.235525E-18  1.984058E-19  3.750349E-03
        10 -1.355602E-19 -1.627061E-18  3.750349E-03
        11 -2.215205E-18  4.328680E-19  3.750349E-03
        12 -6.099244E-19  1.210169E-18  3.750349E-03
        13  1.056731E-18  9.338409E-19  3.750349E-03
        14 -7.205743E-19 -1.141493E-18  3.750349E-03
        15 -7.865666E-19  4.809909E-18  3.750349E-03
        16 -3.804608E-20 -3.536575E-18  3.750349E-03
        17 -2.632524E-18 -5.304234E-19  3.750349E-03
        18  8.743985E-19  1.049668E-19  3.750349E-03
        19  1.491067E-18  5.607669E-19  3.750349E-03
        20  9.204644E-20 -2.276524E-19  3.750349E-03
        21  3.078897E-19 -6.956935E-19 -3.750349E-03
        22 -5.699459E-19 -8.069462E-19 -3.750349E-03
        23  1.112950E-18 -4.003326E-18 -3.750349E-03
        24  2.766777E-18  2.295123E-18 -3.750349E-03
        25 -2.729787E-19  3.051739E-18 -3.750349E-03
        26  3.762642E-18 -1.309932E-18 -3.750349E-03
        27 -1.112404E-18 -6.083144E-18 -3.750349E-03
        28 -3.955006E-18  5.291417E-18 -3.750349E-03
        29  1.039899E-19 -3.402499E-19 -3.750349E-03
        30 -3.523512E-19  1.086116E-18 -3.750349E-03
        31  1.999439E-18 -1.419618E-18 -3.750349E-03
        32 -1.043959E-18 -4.057822E-20 -3.750349E-03
        33  8.098896E-20  1.232572E-18 -3.750349E-03
        34  1.333915E-18 -1.003765E-18 -3.750349E-03
        35  2.131380E-19 -5.186287E-18 -3.750349E-03
        36 -8.466668E-19  3.650354E-18 -3.750349E-03
        37  1.979774E-18  9.559041E-19 -3.750349E-03
        38 -6.910646E-19  2.454444E-18 -3.750349E-03
        39 -2.473950E-18 -4.959198E-19 -3.750349E-03
        40  1.226671E-18 -2.588527E-18 -3.750349E-03

                                INCREMENT    11


 displacements (vx,vy,vz) for set NALL and time  0.1000000E-01

         1  4.276798E-18 -1.387862E-18  6.518635E-03
         2  6.601997E-19 -9.078750E-20  6.518635E-03
         3 -3.028890E-18  5.635471E-18  6.518635E-03
         4  3.078058E-18 -3.249701E-18  6.518635E-03
         5 -1.401450E-18 -1.594980E-18  6.518635E-03
         6 -2.927485E-18  7.297588E-19  6.518635E-03
         7 -1.017558E-18  3.364777E-18  6.518635E-03
         8 -1.366302E-18 -1.241078E-18  6.518635E-03
         9  2.890787E-18 -1.040121E-18  6.518635E-03
        10 -2.080417E-20 -1.268908E-18  6.518635E-03
        11 -2.553887E-19  8.008474E-19  6.518635E-03
        12 -1.379924E-18  1.547374E-18  6.518635E-03
        13  1.348117E-18 -1.744907E-18  6.518635E-03
        14 -6.839703E-19  6.631396E-20  6.518635E-03
        15 -1.986940E-18  4.941038E-18  6.518635E-03
        16  1.322605E-19 -1.804451E-18  6.518635E-03
        17 -1.742495E-18 -1.941851E-19  6.518635E-03
        18  9.710822E-19 -1.109953E-18  6.518635E-03
        19 -1.471816E-18  1.429779E-18  6.518635E-03
        20  9.040287E-19  1.473757E-21  6.518635E-03
        21  5.452038E-18  1.086452E-18 -6.518635E-03
        22  2.519697E-18 -1.566668E-18 -6.518635E-03
        23  2.852101E-19 -4.509970E-18 -6.518635E-03
        24  2.868604E-18  9.133755E-19 -6.518635E-03
        25 -3.161926E-18  1.081552E-17 -6.518635E-03
        26  2.149766E-18 -7.330701E-18 -6.518635E-03
        27 -2.312258E-18 -1.160580E-17 -6.518635E-03
        28 -7.250581E-18  8.065911E-18 -6.518635E-03
        29  4.123580E-18 -2.722102E-19 -6.518635E-03
        30 -5.769593E-19  9.126988E-19 -6.518635E-03
        31  1.778727E-18 -1.188370E-18 -6.518635E-03
        32 -2.552996E-18 -4.096250E-19 -6.518635E-03
        33  1.340784E-18  5.944336E-18 -6.518635E-03
        34  2.040766E-18 -4.454873E-18 -6.518635E-03
        35 -9.643639E-19 -8.113431E-18 -6.518635E-03
        36 -1.910656E-18  4.434637E-18 -6.518635E-03
        37 -3.687429E-19  1.220455E-18 -6.518635E-03
        38 -1.785215E-19  5.078348E-18 -6.518635E-03
        39 -4.579087E-18 -1.391097E-18 -6.518635E-03
        40  2.260308E-18 -4.859751E-18 -6.518635E-03
