    1C
    1UUSER                                                              
    1UDATE              02.july.2020                                    
    1UTIME              11:54:16                                        
    1UHOST                                                              
    1UPGM               CalculiX                                        
    1UVERSION           Version DEVELOPMENT                             
    1UCOMPILETIME       Thu Jul  2 09:44:20 CEST 2020                    
    1UDIR                                                               
    1UDBN                                                               
    1UMAT    1EL                                                        
    1UMAT    2SI1                                                       
    2C                            40                                     1
 -1         1 1.00000E+00 1.00000E+00 0.00000E+00
 -1         2 1.00000E+00 0.00000E+00 0.00000E+00
 -1         3 1.00000E+00 0.00000E+00 1.00000E+00
 -1         4 1.00000E+00 1.00000E+00 1.00000E+00
 -1         5 0.00000E+00 1.00000E+00 0.00000E+00
 -1         6 0.00000E+00 0.00000E+00 0.00000E+00
 -1         7 0.00000E+00 0.00000E+00 1.00000E+00
 -1         8 0.00000E+00 1.00000E+00 1.00000E+00
 -1         9 1.00000E+00 5.00000E-01 0.00000E+00
 -1        10 1.00000E+00 0.00000E+00 5.00000E-01
 -1        11 1.00000E+00 5.00000E-01 1.00000E+00
 -1        12 1.00000E+00 1.00000E+00 5.00000E-01
 -1        13 5.00000E-01 1.00000E+00 0.00000E+00
 -1        14 5.00000E-01 0.00000E+00 0.00000E+00
 -1        15 5.00000E-01 0.00000E+00 1.00000E+00
 -1        16 5.00000E-01 1.00000E+00 1.00000E+00
 -1        17 0.00000E+00 5.00000E-01 0.00000E+00
 -1        18 0.00000E+00 0.00000E+00 5.00000E-01
 -1        19 0.00000E+00 5.00000E-01 1.00000E+00
 -1        20 0.00000E+00 1.00000E+00 5.00000E-01
 -1        21 7.50000E-01 7.50000E-01 1.00000E+00
 -1        22 7.50000E-01 2.50000E-01 1.00000E+00
 -1        23 7.50000E-01 2.50000E-01 1.50000E+00
 -1        24 7.50000E-01 7.50000E-01 1.50000E+00
 -1        25 2.50000E-01 7.50000E-01 1.00000E+00
 -1        26 2.50000E-01 2.50000E-01 1.00000E+00
 -1        27 2.50000E-01 2.50000E-01 1.50000E+00
 -1        28 2.50000E-01 7.50000E-01 1.50000E+00
 -1        29 7.50000E-01 5.00000E-01 1.00000E+00
 -1        30 7.50000E-01 2.50000E-01 1.25000E+00
 -1        31 7.50000E-01 5.00000E-01 1.50000E+00
 -1        32 7.50000E-01 7.50000E-01 1.25000E+00
 -1        33 5.00000E-01 7.50000E-01 1.00000E+00
 -1        34 5.00000E-01 2.50000E-01 1.00000E+00
 -1        35 5.00000E-01 2.50000E-01 1.50000E+00
 -1        36 5.00000E-01 7.50000E-01 1.50000E+00
 -1        37 2.50000E-01 5.00000E-01 1.00000E+00
 -1        38 2.50000E-01 2.50000E-01 1.25000E+00
 -1        39 2.50000E-01 5.00000E-01 1.50000E+00
 -1        40 2.50000E-01 7.50000E-01 1.25000E+00
 -3
    3C                             2                                     1
 -1         1    4    0    1
 -2         1         2         3         4         5         6         7         8         9        10
 -2        11        12        13        14        15        16        17        18        19        20
 -1         2    4    0    1
 -2        21        22        23        24        25        26        27        28        29        30
 -2        31        32        33        34        35        36        37        38        39        40
 -3
    1PSTEP                         1           1           1          
  100CL  101 1.000000000          40                     0    1           1
 -4  DISP        4    1
 -5  D1          1    2    1    0
 -5  D2          1    2    2    0
 -5  D3          1    2    3    0
 -5  ALL         1    2    0    0    1ALL
 -1         1 0.00000E+00 0.00000E+00 0.00000E+00
 -1         2 0.00000E+00 0.00000E+00 0.00000E+00
 -1         3-2.82266E-05 2.82266E-05-5.37753E-05
 -1         4-2.82266E-05-2.82266E-05-5.37753E-05
 -1         5 0.00000E+00 0.00000E+00 0.00000E+00
 -1         6 0.00000E+00 0.00000E+00 0.00000E+00
 -1         7 2.82266E-05 2.82266E-05-5.37753E-05
 -1         8 2.82266E-05-2.82266E-05-5.37753E-05
 -1         9 0.00000E+00 0.00000E+00 0.00000E+00
 -1        10 5.51552E-06-5.51552E-06-2.68865E-05
 -1        11-2.81396E-05-1.30394E-17-1.02749E-04
 -1        12 5.51552E-06 5.51552E-06-2.68865E-05
 -1        13 0.00000E+00 0.00000E+00 0.00000E+00
 -1        14 0.00000E+00 0.00000E+00 0.00000E+00
 -1        15-3.97025E-18 2.81396E-05-1.02749E-04
 -1        16-6.93872E-18-2.81396E-05-1.02749E-04
 -1        17 0.00000E+00 0.00000E+00 0.00000E+00
 -1        18-5.51552E-06-5.51552E-06-2.68865E-05
 -1        19 2.81396E-05-1.01587E-17-1.02749E-04
 -1        20-5.51552E-06 5.51552E-06-2.68865E-05
 -1        21-1.67316E-06-1.67316E-06-1.55008E-04
 -1        22-1.67316E-06 1.67316E-06-1.55008E-04
 -1        23 0.00000E+00 0.00000E+00-3.91492E-04
 -1        24 0.00000E+00 0.00000E+00-3.91492E-04
 -1        25 1.67316E-06-1.67316E-06-1.55008E-04
 -1        26 1.67316E-06 1.67316E-06-1.55008E-04
 -1        27 0.00000E+00 0.00000E+00-3.91492E-04
 -1        28 0.00000E+00 0.00000E+00-3.91492E-04
 -1        29-1.67316E-06-3.15781E-17-1.53922E-04
 -1        30 9.82612E-08-9.82612E-08-2.73250E-04
 -1        31 0.00000E+00 0.00000E+00-3.91742E-04
 -1        32 9.82612E-08 9.82612E-08-2.73250E-04
 -1        33-1.92738E-17-1.67316E-06-1.53922E-04
 -1        34-2.16352E-18 1.67316E-06-1.53922E-04
 -1        35 0.00000E+00 0.00000E+00-3.91742E-04
 -1        36 0.00000E+00 0.00000E+00-3.91742E-04
 -1        37 1.67316E-06-1.44900E-17-1.53922E-04
 -1        38-9.82612E-08-9.82612E-08-2.73250E-04
 -1        39 0.00000E+00 0.00000E+00-3.91742E-04
 -1        40-9.82612E-08 9.82612E-08-2.73250E-04
 -3
    1PSTEP                         2           1           1          
  100CL  101 1.000000000          40                     0    1           1
 -4  STRESS      6    1
 -5  SXX         1    4    1    1
 -5  SYY         1    4    2    2
 -5  SZZ         1    4    3    3
 -5  SXY         1    4    1    2
 -5  SYZ         1    4    2    3
 -5  SZX         1    4    3    1
 -1         1 8.57672E-05 8.57672E-05-1.12920E+01 5.33267E-04 5.27939E+00 5.27939E+00
 -1         2 8.57672E-05 8.57672E-05-1.12920E+01-5.33267E-04-5.27939E+00 5.27939E+00
 -1         3-1.18541E+01-1.18541E+01-1.12859E+01 7.10702E-02-9.36003E+00 9.36003E+00
 -1         4-1.18541E+01-1.18541E+01-1.12859E+01-7.10702E-02 9.36003E+00 9.36003E+00
 -1         5 8.57672E-05 8.57672E-05-1.12920E+01-5.33267E-04 5.27939E+00-5.27939E+00
 -1         6 8.57672E-05 8.57672E-05-1.12920E+01 5.33267E-04-5.27939E+00-5.27939E+00
 -1         7-1.18541E+01-1.18541E+01-1.12859E+01-7.10702E-02-9.36003E+00-9.36003E+00
 -1         8-1.18541E+01-1.18541E+01-1.12859E+01 7.10702E-02 9.36003E+00-9.36003E+00
 -1         9 2.42571E-04 1.20363E-04-2.15741E+01 3.83374E-16-8.09353E-14 5.28801E+00
 -1        10 2.31763E+00 2.31763E+00-1.12901E+01 3.59628E-02-7.32041E+00 7.32041E+00
 -1        11-1.18180E+01-1.18562E+01-2.15738E+01-3.40315E-13 2.62013E-14 9.36928E+00
 -1        12 2.31763E+00 2.31763E+00-1.12901E+01-3.59628E-02 7.32041E+00 7.32041E+00
 -1        13 1.20363E-04 2.42571E-04-2.15741E+01-4.32814E-16 5.28801E+00 1.06470E-13
 -1        14 1.20363E-04 2.42571E-04-2.15741E+01-1.99493E-17-5.28801E+00-4.52749E-13
 -1        15-1.18562E+01-1.18180E+01-2.15738E+01-7.35403E-13-9.36928E+00-8.39329E-13
 -1        16-1.18562E+01-1.18180E+01-2.15738E+01-4.68846E-13 9.36928E+00 2.92877E-13
 -1        17 2.42571E-04 1.20363E-04-2.15741E+01-1.48319E-16-6.58917E-13-5.28801E+00
 -1        18 2.31763E+00 2.31763E+00-1.12901E+01-3.59628E-02-7.32041E+00-7.32041E+00
 -1        19-1.18180E+01-1.18562E+01-2.15738E+01-8.63570E-13-1.11955E-12-9.36928E+00
 -1        20 2.31763E+00 2.31763E+00-1.12901E+01 3.59628E-02 7.32041E+00-7.32041E+00
 -1        21-1.40611E+00-1.40611E+00-9.92501E+01 7.74527E-06 2.23213E-01 2.23213E-01
 -1        22-1.40611E+00-1.40611E+00-9.92501E+01-7.74528E-06-2.23213E-01 2.23213E-01
 -1        23 1.12268E-05 1.12268E-05-9.92487E+01-2.27193E-06 2.23875E-01-2.23875E-01
 -1        24 1.12268E-05 1.12268E-05-9.92487E+01 2.27193E-06-2.23875E-01-2.23875E-01
 -1        25-1.40611E+00-1.40611E+00-9.92501E+01-7.74528E-06 2.23213E-01-2.23213E-01
 -1        26-1.40611E+00-1.40611E+00-9.92501E+01 7.74527E-06-2.23213E-01-2.23213E-01
 -1        27 1.12268E-05 1.12268E-05-9.92487E+01 2.27193E-06 2.23875E-01 2.23875E-01
 -1        28 1.12268E-05 1.12268E-05-9.92487E+01-2.27193E-06-2.23875E-01 2.23875E-01
 -1        29-1.40613E+00-1.40614E+00-9.98195E+01-7.17032E-12-1.13489E-11 2.23209E-01
 -1        30 8.25769E-02 8.25769E-02-9.92577E+01 1.34356E-06 3.34063E-04-3.34063E-04
 -1        31-8.36349E-06-6.82418E-06-9.98182E+01-2.99027E-16-5.66786E-12-2.23874E-01
 -1        32 8.25769E-02 8.25769E-02-9.92577E+01-1.34355E-06-3.34063E-04-3.34063E-04
 -1        33-1.40614E+00-1.40613E+00-9.98195E+01-7.16142E-12 2.23209E-01-1.05333E-11
 -1        34-1.40614E+00-1.40613E+00-9.98195E+01-7.20991E-12-2.23209E-01 8.97863E-12
 -1        35-6.82418E-06-8.36349E-06-9.98182E+01-1.18680E-16 2.23874E-01 3.33725E-12
 -1        36-6.82418E-06-8.36349E-06-9.98182E+01 3.44044E-16-2.23874E-01-4.72308E-12
 -1        37-1.40613E+00-1.40614E+00-9.98195E+01-7.20210E-12 8.21997E-12-2.23209E-01
 -1        38 8.25769E-02 8.25769E-02-9.92577E+01-1.34355E-06 3.34063E-04 3.34063E-04
 -1        39-8.36349E-06-6.82418E-06-9.98182E+01 1.97687E-16 2.52737E-12 2.23874E-01
 -1        40 8.25769E-02 8.25769E-02-9.92577E+01 1.34356E-06-3.34063E-04 3.34063E-04
 -3
    1PSTEP                         3           1           1          
  100CL  101 1.000000000           8                     0    1           1
 -4  CONTACT     6    1
 -5  COPEN       1    4    1    1
 -5  CSLIP1      1    4    2    2
 -5  CSLIP2      1    4    3    3
 -5  CPRESS      1    4    1    2
 -5  CSHEAR1     1    4    2    3
 -5  CSHEAR2     1    4    3    1
 -1        37 0.00000E+00 0.00000E+00 0.00000E+00 1.00000E+02-4.13342E-01-8.39412E-13
 -1        34 0.00000E+00 0.00000E+00 0.00000E+00 1.00000E+02-2.47413E-13-4.13342E-01
 -1        33 0.00000E+00 0.00000E+00 0.00000E+00 1.00000E+02-7.68829E-13 4.13342E-01
 -1        29 0.00000E+00 0.00000E+00 0.00000E+00 1.00000E+02 4.13342E-01-1.36091E-12
 -1        26-6.25000E-07-2.58339E-07-6.25003E-02 1.00000E+02-4.13342E-01-4.13342E-01
 -1        25-6.25000E-07-2.58339E-07-6.25003E-02 1.00000E+02-4.13342E-01 4.13342E-01
 -1        22-6.25000E-07 2.58339E-07-6.24997E-02 1.00000E+02 4.13342E-01-4.13342E-01
 -1        21-6.25000E-07 2.58339E-07-6.24997E-02 1.00000E+02 4.13342E-01 4.13342E-01
 -3
    1PSTEP                         4           1           1          
  100CL  101 1.000000000          40                     0    1           1
 -4  ERROR       1    1
 -5  STR(%)      1    1    0    0
 -1         1 3.38190E+00
 -1         2 3.38190E+00
 -1         3 3.38190E+00
 -1         4 3.38190E+00
 -1         5 3.38190E+00
 -1         6 3.38190E+00
 -1         7 3.38190E+00
 -1         8 3.38190E+00
 -1         9 3.38190E+00
 -1        10 3.38190E+00
 -1        11 3.38190E+00
 -1        12 3.38190E+00
 -1        13 3.38190E+00
 -1        14 3.38190E+00
 -1        15 3.38190E+00
 -1        16 3.38190E+00
 -1        17 3.38190E+00
 -1        18 3.38190E+00
 -1        19 3.38190E+00
 -1        20 3.38190E+00
 -1        21 3.43216E-02
 -1        22 3.43216E-02
 -1        23 3.43216E-02
 -1        24 3.43216E-02
 -1        25 3.43216E-02
 -1        26 3.43216E-02
 -1        27 3.43216E-02
 -1        28 3.43216E-02
 -1        29 3.43216E-02
 -1        30 3.43216E-02
 -1        31 3.43216E-02
 -1        32 3.43216E-02
 -1        33 3.43216E-02
 -1        34 3.43216E-02
 -1        35 3.43216E-02
 -1        36 3.43216E-02
 -1        37 3.43216E-02
 -1        38 3.43216E-02
 -1        39 3.43216E-02
 -1        40 3.43216E-02
 -3
 9999
