    1C
    1UUSER                                                              
    1UDATE              19.july.2022                                    
    1UTIME              21:27:03                                        
    1UHOST                                                              
    1UPGM               CalculiX                                        
    1UVERSION           Version DEVELOPMENT                             
    1UCOMPILETIME       Tue Jul 19 21:11:38 CEST 2022                    
    1UDIR                                                               
    1UDBN                                                               
    1UMAT    1EL                                                        
    2C                            40                                     1
 -1         1 1.00000E+00 1.00000E+00 0.00000E+00
 -1         2 1.00000E+00 0.00000E+00 0.00000E+00
 -1         3 1.00000E+00 0.00000E+00 1.00000E+00
 -1         4 1.00000E+00 1.00000E+00 1.00000E+00
 -1         5 0.00000E+00 1.00000E+00 0.00000E+00
 -1         6 0.00000E+00 0.00000E+00 0.00000E+00
 -1         7 0.00000E+00 0.00000E+00 1.00000E+00
 -1         8 0.00000E+00 1.00000E+00 1.00000E+00
 -1         9 1.00000E+00 5.00000E-01 0.00000E+00
 -1        10 1.00000E+00 0.00000E+00 5.00000E-01
 -1        11 1.00000E+00 5.00000E-01 1.00000E+00
 -1        12 1.00000E+00 1.00000E+00 5.00000E-01
 -1        13 5.00000E-01 1.00000E+00 0.00000E+00
 -1        14 5.00000E-01 0.00000E+00 0.00000E+00
 -1        15 5.00000E-01 0.00000E+00 1.00000E+00
 -1        16 5.00000E-01 1.00000E+00 1.00000E+00
 -1        17 0.00000E+00 5.00000E-01 0.00000E+00
 -1        18 0.00000E+00 0.00000E+00 5.00000E-01
 -1        19 0.00000E+00 5.00000E-01 1.00000E+00
 -1        20 0.00000E+00 1.00000E+00 5.00000E-01
 -1        21 1.00000E+00 1.00000E+00 2.00000E+00
 -1        22 1.00000E+00 0.00000E+00 2.00000E+00
 -1        23 1.00000E+00 0.00000E+00 3.00000E+00
 -1        24 1.00000E+00 1.00000E+00 3.00000E+00
 -1        25 0.00000E+00 1.00000E+00 2.00000E+00
 -1        26 0.00000E+00 0.00000E+00 2.00000E+00
 -1        27 0.00000E+00 0.00000E+00 3.00000E+00
 -1        28 0.00000E+00 1.00000E+00 3.00000E+00
 -1        29 1.00000E+00 5.00000E-01 2.00000E+00
 -1        30 1.00000E+00 0.00000E+00 2.50000E+00
 -1        31 1.00000E+00 5.00000E-01 3.00000E+00
 -1        32 1.00000E+00 1.00000E+00 2.50000E+00
 -1        33 5.00000E-01 1.00000E+00 2.00000E+00
 -1        34 5.00000E-01 0.00000E+00 2.00000E+00
 -1        35 5.00000E-01 0.00000E+00 3.00000E+00
 -1        36 5.00000E-01 1.00000E+00 3.00000E+00
 -1        37 0.00000E+00 5.00000E-01 2.00000E+00
 -1        38 0.00000E+00 0.00000E+00 2.50000E+00
 -1        39 0.00000E+00 5.00000E-01 3.00000E+00
 -1        40 0.00000E+00 1.00000E+00 2.50000E+00
 -3
    3C                             2                                     1
 -1         1    4    0    1
 -2         1         2         3         4         5         6         7         8         9        10
 -2        11        12        13        14        15        16        17        18        19        20
 -1         2    4    0    1
 -2        21        22        23        24        25        26        27        28        29        30
 -2        31        32        33        34        35        36        37        38        39        40
 -3
    1PSTEP                         1           5           1          
  100CL  101 9.12500E-04          40                     1    1           1
 -4  ENER        1    1
 -5  ENER        1    1    0    0
 -1         1 9.51235E-32
 -1         2 1.94001E-31
 -1         3 1.41518E-31
 -1         4 2.59362E-32
 -1         5 5.66606E-32
 -1         6 2.51703E-32
 -1         7 2.18350E-31
 -1         8 5.76195E-32
 -1         9 1.44562E-31
 -1        10 1.67760E-31
 -1        11 8.37273E-32
 -1        12 6.05298E-32
 -1        13 7.58920E-32
 -1        14 1.09586E-31
 -1        15 1.79934E-31
 -1        16 4.17779E-32
 -1        17 4.09155E-32
 -1        18 1.21760E-31
 -1        19 1.37985E-31
 -1        20 5.71401E-32
 -1        21 5.83620E-37
 -1        22 1.32240E-32
 -1        23 5.67226E-32
 -1        24 4.19031E-32
 -1        25 2.40034E-31
 -1        26 7.42856E-32
 -1        27 2.16795E-31
 -1        28-1.36204E-32
 -1        29 6.61231E-33
 -1        30 3.49733E-32
 -1        31 4.93128E-32
 -1        32 2.09518E-32
 -1        33 1.20017E-31
 -1        34 4.37548E-32
 -1        35 1.36759E-31
 -1        36 1.41413E-32
 -1        37 1.57160E-31
 -1        38 1.45540E-31
 -1        39 1.01587E-31
 -1        40 1.13207E-31
 -3
    1PSTEP                         2          10           1          
  100CL  102 7.58867E-03          40                     1    2           1
 -4  ENER        1    1
 -5  ENER        1    1    0    0
 -1         1 7.28137E-30
 -1         2 1.12930E-29
 -1         3 1.39927E-29
 -1         4-2.89521E-30
 -1         5 3.51945E-30
 -1         6 1.53099E-31
 -1         7 6.08014E-30
 -1         8 1.12120E-29
 -1         9 9.28719E-30
 -1        10 1.26429E-29
 -1        11 5.54875E-30
 -1        12 2.19308E-30
 -1        13 5.40041E-30
 -1        14 5.72306E-30
 -1        15 1.00364E-29
 -1        16 4.15838E-30
 -1        17 1.83627E-30
 -1        18 3.11662E-30
 -1        19 8.64606E-30
 -1        20 7.36571E-30
 -1        21 8.42858E-30
 -1        22-5.29033E-30
 -1        23 2.92885E-30
 -1        24 1.81317E-30
 -1        25-4.02601E-30
 -1        26 1.71889E-29
 -1        27 8.59628E-31
 -1        28 4.64305E-30
 -1        29 1.56912E-30
 -1        30-1.18074E-30
 -1        31 2.37101E-30
 -1        32 5.12087E-30
 -1        33 2.20128E-30
 -1        34 5.94929E-30
 -1        35 1.89424E-30
 -1        36 3.22811E-30
 -1        37 6.58144E-30
 -1        38 9.02426E-30
 -1        39 2.75134E-30
 -1        40 3.08519E-31
 -3
    1PSTEP                         3          11           1          
  100CL  103 1.00000E-02          40                     1    3           1
 -4  ENER        1    1
 -5  ENER        1    1    0    0
 -1         1 1.25525E-29
 -1         2 1.62115E-30
 -1         3 4.98982E-30
 -1         4-3.91780E-30
 -1         5 1.00534E-31
 -1         6 7.02985E-31
 -1         7-1.13136E-30
 -1         8 7.62839E-30
 -1         9 7.08685E-30
 -1        10 3.30548E-30
 -1        11 5.36010E-31
 -1        12 4.31737E-30
 -1        13 6.32654E-30
 -1        14 1.16207E-30
 -1        15 1.92923E-30
 -1        16 1.85529E-30
 -1        17 4.01759E-31
 -1        18-2.14187E-31
 -1        19 3.24852E-30
 -1        20 3.86446E-30
 -1        21 3.68547E-30
 -1        22-1.91189E-30
 -1        23 4.70142E-30
 -1        24-2.19686E-30
 -1        25-1.43586E-30
 -1        26 8.09182E-30
 -1        27-4.87778E-30
 -1        28 8.81881E-30
 -1        29 8.86791E-31
 -1        30 1.39477E-30
 -1        31 1.25228E-30
 -1        32 7.44306E-31
 -1        33 1.12481E-30
 -1        34 3.08997E-30
 -1        35-8.81780E-32
 -1        36 3.31098E-30
 -1        37 3.32798E-30
 -1        38 1.60702E-30
 -1        39 1.97052E-30
 -1        40 3.69148E-30
 -3
 9999
