
                        S T E P       1


                                INCREMENT     1


 displacements (vx,vy,vz) for set NNODUP and time  0.1000000E+01

         1  1.682319E+00  1.326371E+00  1.552321E+00
         2  1.250428E+00  1.332681E+00  1.839098E+00
         3  1.468386E+00  1.679397E+00  1.806799E+00
         4  1.878240E+00  1.713456E+00  1.476934E+00
         5  1.582780E+00  1.317676E+00  1.424207E+00
         6  1.149930E+00  1.337723E+00  1.696729E+00
         7  1.359923E+00  1.677709E+00  1.665612E+00
         8  1.761858E+00  1.697833E+00  1.335390E+00
         9  1.605716E+00  1.962300E+00  1.743685E+00
        10  2.045121E+00  1.923187E+00  1.269400E+00
        11  1.452746E+00  1.928022E+00  1.609418E+00
        12  1.863261E+00  1.855991E+00  1.118597E+00
        13  1.480959E+00  1.305757E+00  1.296598E+00
        14  1.051349E+00  1.342246E+00  1.551618E+00
        15  1.263470E+00  1.673240E+00  1.525767E+00
        16  1.669626E+00  1.687830E+00  1.193764E+00
        17  1.255761E+00  1.912131E+00  1.465604E+00
        18  1.575687E+00  1.765032E+00  9.674499E-01
        19  8.760331E-01  1.450164E+00  2.123587E+00
        20  1.060929E+00  1.725932E+00  2.089825E+00
        21  7.859841E-01  1.454628E+00  1.963918E+00
        22  9.658489E-01  1.733510E+00  1.944610E+00
        23  1.177125E+00  1.983997E+00  2.076596E+00
        24  1.066084E+00  1.971025E+00  1.937131E+00
        25  6.968242E-01  1.462418E+00  1.801742E+00
        26  8.839447E-01  1.739916E+00  1.798168E+00
        27  9.081634E-01  1.975485E+00  1.793237E+00
        28  5.938185E-01  1.614647E+00  2.399111E+00
        29  6.728917E-01  1.800124E+00  2.328753E+00
        30  5.217303E-01  1.616956E+00  2.218047E+00
        31  5.975817E-01  1.807402E+00  2.177238E+00
        32  7.635048E-01  1.996272E+00  2.317667E+00
        33  6.758327E-01  1.994475E+00  2.172624E+00
        34  4.425739E-01  1.626222E+00  2.033598E+00
        35  5.355010E-01  1.814529E+00  2.024031E+00
        36  5.408191E-01  2.009823E+00  2.024889E+00
        37  4.221946E-01  1.831385E+00  2.630318E+00
        38  3.099714E-01  1.848333E+00  2.524109E+00
        39  3.657725E-01  1.832976E+00  2.448592E+00
        40  2.601886E-01  1.853259E+00  2.363465E+00
        41  3.640321E-01  1.996188E+00  2.492636E+00
        42  3.006277E-01  2.003285E+00  2.343910E+00
        43  3.025543E-01  1.841357E+00  2.262925E+00
        44  2.228594E-01  1.854885E+00  2.200295E+00
        45  1.927358E-01  2.035834E+00  2.191085E+00
       121  1.641379E+00  2.026936E+00  1.711732E+00
       122  2.115897E+00  1.966394E+00  1.220965E+00
       123  1.489659E+00  1.976825E+00  1.587177E+00
       124  1.940268E+00  1.889857E+00  1.073799E+00
       125  1.697004E+00  2.092275E+00  1.667969E+00
       126  2.198702E+00  2.009595E+00  1.160457E+00
       127  1.550191E+00  2.030575E+00  1.526594E+00
       128  2.020642E+00  1.931304E+00  1.014804E+00
       129  1.337335E+00  1.918661E+00  1.413683E+00
       130  1.652643E+00  1.767351E+00  9.109124E-01
       131  1.424222E+00  1.927946E+00  1.363043E+00
       132  1.759967E+00  1.787793E+00  8.504373E-01
       133  1.201623E+00  2.041264E+00  2.061191E+00
       134  1.098750E+00  2.014630E+00  1.933161E+00
       135  1.234233E+00  2.100656E+00  2.035276E+00
       136  1.137380E+00  2.062256E+00  1.891360E+00
       137  9.886101E-01  1.977298E+00  1.762907E+00
       138  1.073864E+00  1.982228E+00  1.730948E+00
       139  7.824480E-01  2.038537E+00  2.309795E+00
       140  7.028065E-01  2.028067E+00  2.177014E+00
       141  8.050263E-01  2.082279E+00  2.294224E+00
       142  7.308756E-01  2.064140E+00  2.148444E+00
       143  6.222654E-01  2.011375E+00  2.006116E+00
       144  7.093177E-01  2.014760E+00  1.988214E+00
       145  3.777176E-01  2.020269E+00  2.494700E+00
       146  3.186827E-01  2.023284E+00  2.350959E+00
       147  3.921889E-01  2.045374E+00  2.487850E+00
       148  3.384573E-01  2.043498E+00  2.334135E+00
       149  2.513730E-01  2.025914E+00  2.176941E+00
       150  3.208434E-01  2.015510E+00  2.165451E+00
       306  2.044131E+00  2.357353E+00  1.447326E+00
       307  2.613293E+00  2.313239E+00  9.545626E-01
       308  1.907226E+00  2.295179E+00  1.314091E+00
       309  2.463160E+00  2.259077E+00  8.317013E-01
       310  2.415489E+00  2.537249E+00  1.505756E+00
       311  3.010023E+00  2.645813E+00  1.010833E+00
       312  2.270764E+00  2.491474E+00  1.374837E+00
       313  2.852186E+00  2.610283E+00  8.898478E-01
       314  1.762777E+00  2.245121E+00  1.184627E+00
       315  2.331764E+00  2.229980E+00  7.122069E-01
       316  2.130449E+00  2.447528E+00  1.239364E+00
       317  2.695502E+00  2.558033E+00  7.647322E-01
       318  1.479592E+00  2.317160E+00  1.882217E+00
       319  1.372956E+00  2.261304E+00  1.749405E+00
       320  1.798354E+00  2.397283E+00  1.969385E+00
       321  1.672597E+00  2.358927E+00  1.834413E+00
       322  1.257584E+00  2.215359E+00  1.618482E+00
       323  1.543465E+00  2.320105E+00  1.695783E+00
       324  9.179275E-01  2.205989E+00  2.210322E+00
       325  8.443110E-01  2.168189E+00  2.074496E+00
       326  1.168660E+00  2.205133E+00  2.323741E+00
       327  1.073668E+00  2.174348E+00  2.206996E+00
       328  7.598718E-01  2.140052E+00  1.942047E+00
       329  9.738032E-01  2.153122E+00  2.086316E+00
       330  4.258916E-01  2.089128E+00  2.450891E+00
       331  3.731046E-01  2.071570E+00  2.301189E+00
       332  4.237107E-01  1.839643E+00  2.578824E+00
       333  3.670030E-01  1.835508E+00  2.442631E+00
       334  3.234590E-01  2.060265E+00  2.152897E+00
       335  3.043826E-01  1.838625E+00  2.299974E+00
       386 -1.033978E+00  1.998016E+00  2.241965E+00
       387 -5.811384E-01  1.904666E+00  2.340524E+00
       388 -6.952278E-01  1.974437E+00  2.306995E+00
       389 -1.051481E+00  1.983623E+00  2.216939E+00
       390 -1.088597E+00  2.000677E+00  2.382242E+00
       391 -5.975206E-01  1.898282E+00  2.501041E+00
       392 -7.293258E-01  1.976378E+00  2.460653E+00
       393 -1.099293E+00  1.973857E+00  2.359356E+00
       394 -7.588512E-01  2.062907E+00  2.292504E+00
       395 -1.052226E+00  2.083099E+00  2.215546E+00
       396 -7.352427E-01  2.012497E+00  2.454321E+00
       397 -1.086057E+00  1.996677E+00  2.373907E+00
       398 -1.140576E+00  1.998567E+00  2.516700E+00
       399 -6.230577E-01  1.899296E+00  2.655996E+00
       400 -7.552821E-01  1.969717E+00  2.614025E+00
       401 -1.152978E+00  1.951687E+00  2.508322E+00
       402 -7.529652E-01  1.999520E+00  2.612187E+00
       403 -1.133752E+00  1.976616E+00  2.526075E+00
       404 -2.533705E-01  1.844231E+00  2.385202E+00
       405 -3.710559E-01  1.951629E+00  2.342780E+00
       406 -2.447670E-01  1.836987E+00  2.551627E+00
       407 -3.799201E-01  1.954270E+00  2.500494E+00
       408 -4.298125E-01  2.048021E+00  2.312212E+00
       409 -3.926094E-01  2.011653E+00  2.474366E+00
       410 -2.405395E-01  1.833061E+00  2.712542E+00
       411 -3.820448E-01  1.951486E+00  2.655766E+00
       412 -3.858712E-01  2.002532E+00  2.633727E+00
       413  3.553998E-02  1.813544E+00  2.362193E+00
       414 -7.351078E-02  1.926368E+00  2.307393E+00
       415  7.272913E-02  1.802231E+00  2.531514E+00
       416 -5.483627E-02  1.928592E+00  2.469929E+00
       417 -1.058606E-01  2.045936E+00  2.281541E+00
       418 -4.951469E-02  2.011576E+00  2.443511E+00
       419  1.034573E-01  1.796768E+00  2.695990E+00
       420 -3.053578E-02  1.925064E+00  2.629621E+00
       421 -1.549266E-02  2.003360E+00  2.599254E+00
       482 -7.047781E-01  2.044495E+00  2.290179E+00
       483 -1.024203E+00  2.061563E+00  2.217368E+00
       484 -7.222928E-01  2.023728E+00  2.466170E+00
       485 -1.070564E+00  2.017975E+00  2.390664E+00
       486 -6.503102E-01  2.023679E+00  2.291925E+00
       487 -9.949873E-01  2.033809E+00  2.223027E+00
       488 -7.045747E-01  2.036206E+00  2.455587E+00
       489 -1.052096E+00  2.037497E+00  2.382942E+00
       490 -7.427920E-01  2.014168E+00  2.615978E+00
       491 -1.117171E+00  2.000986E+00  2.534737E+00
       492 -7.318755E-01  2.030993E+00  2.612399E+00
       493 -1.100426E+00  2.029624E+00  2.535375E+00
       494 -3.782435E-01  2.027914E+00  2.306867E+00
       495 -3.753191E-01  2.021029E+00  2.484798E+00
       496 -3.269903E-01  2.007970E+00  2.306207E+00
       497 -3.562302E-01  2.031265E+00  2.473969E+00
       498 -3.730885E-01  2.015471E+00  2.637690E+00
       499 -3.599887E-01  2.030339E+00  2.632694E+00
       500 -5.919318E-02  2.026769E+00  2.271084E+00
       501 -2.981781E-02  2.023414E+00  2.449662E+00
       502 -1.103762E-02  2.006010E+00  2.264886E+00
       503 -1.263845E-02  2.035879E+00  2.433903E+00
       504 -2.018453E-03  2.020276E+00  2.600676E+00
       505  1.056098E-02  2.037371E+00  2.593040E+00
       630 -6.537217E-01  2.111082E+00  2.256590E+00
       631 -9.341450E-01  2.182080E+00  2.162000E+00
       632 -6.671425E-01  2.112967E+00  2.420515E+00
       633 -9.808987E-01  2.190841E+00  2.327565E+00
       634 -7.600008E-01  2.019955E+00  2.353165E+00
       635 -1.032341E+00  2.003291E+00  2.204439E+00
       636 -7.949492E-01  2.025184E+00  2.523765E+00
       637 -1.087351E+00  2.001773E+00  2.390077E+00
       638 -6.868979E-01  2.118897E+00  2.580088E+00
       639 -1.030392E+00  2.200597E+00  2.488170E+00
       640 -8.228088E-01  2.027193E+00  2.688507E+00
       641 -1.139097E+00  1.995500E+00  2.571581E+00
       642 -3.564052E-01  2.090582E+00  2.284255E+00
       643 -3.437486E-01  2.089458E+00  2.442486E+00
       644 -4.729339E-01  1.985432E+00  2.408874E+00
       645 -4.770792E-01  1.987011E+00  2.576608E+00
       646 -3.366738E-01  2.094127E+00  2.597905E+00
       647 -4.773111E-01  1.986676E+00  2.737357E+00
       648 -3.169806E-02  2.072189E+00  2.244014E+00
       649  4.652402E-03  2.072406E+00  2.399369E+00
       650 -1.435397E-01  1.927529E+00  2.387131E+00
       651 -1.215169E-01  1.927613E+00  2.548432E+00
       652  3.545695E-02  2.080383E+00  2.553480E+00
       653 -9.023184E-02  1.923506E+00  2.701811E+00
       694 -1.920644E+00  1.632425E+00  2.280265E+00
       695 -1.615232E+00  1.846102E+00  2.313882E+00
       696 -1.840137E+00  1.644879E+00  2.170217E+00
       697 -1.540546E+00  1.869426E+00  2.185200E+00
       698 -1.487430E+00  1.974249E+00  2.372607E+00
       699 -1.410878E+00  2.003283E+00  2.227429E+00
       700 -1.750205E+00  1.655570E+00  2.055967E+00
       701 -1.472322E+00  1.872596E+00  2.057418E+00
       702 -1.309070E+00  2.089392E+00  2.077695E+00
       703 -2.557026E+00  1.479943E+00  2.068861E+00
       704 -2.117268E+00  1.811235E+00  2.085905E+00
       705 -2.462999E+00  1.486365E+00  1.937134E+00
       706 -2.021671E+00  1.829348E+00  1.959357E+00
       707 -1.811915E+00  2.053871E+00  2.173040E+00
       708 -1.706037E+00  2.080643E+00  2.028634E+00
       709 -2.361824E+00  1.498053E+00  1.804103E+00
       710 -1.929780E+00  1.834698E+00  1.831677E+00
       711 -1.582063E+00  2.149808E+00  1.879209E+00
       712 -3.154702E+00  1.396941E+00  1.841119E+00
       713 -2.600804E+00  1.871290E+00  1.828534E+00
       714 -3.049621E+00  1.397080E+00  1.711806E+00
       715 -2.494593E+00  1.876854E+00  1.697645E+00
       716 -2.151881E+00  2.213874E+00  1.889064E+00
       717 -1.987775E+00  2.226060E+00  1.750724E+00
       718 -2.945935E+00  1.400025E+00  1.580216E+00
       719 -2.389746E+00  1.871409E+00  1.567977E+00
       720 -1.813180E+00  2.270216E+00  1.597102E+00
       721 -3.724534E+00  1.347500E+00  1.609714E+00
       722 -3.066605E+00  2.031092E+00  1.590315E+00
       723 -3.613845E+00  1.349713E+00  1.486432E+00
       724 -2.961893E+00  2.024267E+00  1.460620E+00
       725 -2.506273E+00  2.437583E+00  1.459778E+00
       726 -2.303246E+00  2.438075E+00  1.313051E+00
       727 -3.493038E+00  1.355475E+00  1.364222E+00
       728 -2.882189E+00  2.009598E+00  1.329140E+00
       729 -2.005174E+00  2.454213E+00  1.160506E+00
       790 -1.465394E+00  2.018085E+00  2.392601E+00
       791 -1.387611E+00  2.037150E+00  2.256323E+00
       792 -1.449149E+00  2.064591E+00  2.401978E+00
       793 -1.373550E+00  2.067022E+00  2.251444E+00
       794 -1.298488E+00  2.067733E+00  2.082247E+00
       795 -1.293348E+00  2.043826E+00  2.090343E+00
       796 -1.793725E+00  2.107842E+00  2.190427E+00
       797 -1.683910E+00  2.119284E+00  2.054088E+00
       798 -1.783937E+00  2.164103E+00  2.191402E+00
       799 -1.670252E+00  2.158134E+00  2.043389E+00
       800 -1.554793E+00  2.131809E+00  1.879358E+00
       801 -1.535279E+00  2.114677E+00  1.882335E+00
       802 -2.125666E+00  2.272017E+00  1.894384E+00
       803 -1.954344E+00  2.270551E+00  1.765063E+00
       804 -2.116613E+00  2.330143E+00  1.885148E+00
       805 -1.944885E+00  2.318774E+00  1.743641E+00
       806 -1.774680E+00  2.264516E+00  1.586447E+00
       807 -1.742065E+00  2.259958E+00  1.582365E+00
       808 -2.477978E+00  2.455239E+00  1.459824E+00
       809 -2.271151E+00  2.453342E+00  1.309984E+00
       810 -2.460898E+00  2.479778E+00  1.444438E+00
       811 -2.250647E+00  2.474780E+00  1.294863E+00
       812 -1.925026E+00  2.451668E+00  1.155173E+00
       813 -1.895052E+00  2.451362E+00  1.139675E+00
       938 -1.394146E+00  2.271411E+00  2.335184E+00
       939 -1.313754E+00  2.262326E+00  2.182474E+00
       940 -1.312218E+00  2.226661E+00  2.483285E+00
       941 -1.241913E+00  2.233475E+00  2.300548E+00
       942 -1.236510E+00  2.257565E+00  2.025906E+00
       943 -1.169057E+00  2.231900E+00  2.112494E+00
       944 -1.752692E+00  2.391687E+00  2.112220E+00
       945 -1.641695E+00  2.381072E+00  1.964010E+00
       946 -1.598866E+00  2.422198E+00  2.300881E+00
       947 -1.500168E+00  2.431918E+00  2.141564E+00
       948 -1.538356E+00  2.378044E+00  1.813878E+00
       949 -1.405347E+00  2.436200E+00  1.976736E+00
       950 -2.107313E+00  2.518645E+00  1.808993E+00
       951 -1.965341E+00  2.509254E+00  1.666324E+00
       952 -1.975644E+00  2.566497E+00  2.035860E+00
       953 -1.849421E+00  2.583672E+00  1.894968E+00
       954 -1.834973E+00  2.511326E+00  1.527490E+00
       955 -1.728262E+00  2.599687E+00  1.749526E+00
       956 -2.458823E+00  2.577956E+00  1.426692E+00
       957 -2.286729E+00  2.567067E+00  1.289100E+00
       958 -2.397894E+00  2.617924E+00  1.664622E+00
       959 -2.246478E+00  2.627092E+00  1.544499E+00
       960 -2.145223E+00  2.559448E+00  1.156234E+00
       961 -2.102832E+00  2.643991E+00  1.425512E+00
