    1C
    1UUSER                                                              
    1UDATE              29.january.2017                                 
    1UTIME              23:44:15                                        
    1UHOST                                                              
    1UPGM               CalculiX                                        
    1UVERSION           Version DEVELOPMENT                             
    1UCOMPILETIME       So 29. Jan 22:39:40 CET 2017                    
    1UDIR                                                               
    1UDBN                                                               
    1UMAT    1EL                                                        
    2C                          1200                                     1
 -1         1 5.55112E-17 1.10000E+00 0.00000E+00
 -1         2 4.20952E-01 1.01627E+00 0.00000E+00
 -1         3 4.20952E-01 1.01627E+00 8.00000E-01
 -1         4 5.55112E-17 1.10000E+00 8.00000E-01
 -1         5 5.55112E-17 1.00000E+00 0.00000E+00
 -1         6 3.82683E-01 9.23880E-01 0.00000E+00
 -1         7 3.82683E-01 9.23880E-01 8.00000E-01
 -1         8 5.55112E-17 1.00000E+00 8.00000E-01
 -1         9 2.14599E-01 1.07886E+00 0.00000E+00
 -1        10 4.20952E-01 1.01627E+00 4.00000E-01
 -1        11 2.14599E-01 1.07886E+00 8.00000E-01
 -1        12 5.55112E-17 1.10000E+00 4.00000E-01
 -1        13 5.55112E-17 1.05000E+00 0.00000E+00
 -1        14 4.01818E-01 9.70074E-01 8.88178E-16
 -1        15 4.01818E-01 9.70074E-01 8.00000E-01
 -1        16 5.55112E-17 1.05000E+00 8.00000E-01
 -1        17 1.95090E-01 9.80785E-01 0.00000E+00
 -1        18 3.82683E-01 9.23880E-01 4.00000E-01
 -1        19 1.95090E-01 9.80785E-01 8.00000E-01
 -1        20 5.55112E-17 1.00000E+00 4.00000E-01
 -1        21 4.20952E-01 1.01627E+00 1.60000E+00
 -1        22 5.55112E-17 1.10000E+00 1.60000E+00
 -1        23 3.82683E-01 9.23880E-01 1.60000E+00
 -1        24 5.55112E-17 1.00000E+00 1.60000E+00
 -1        25 4.20952E-01 1.01627E+00 1.20000E+00
 -1        26 2.14599E-01 1.07886E+00 1.60000E+00
 -1        27 5.55112E-17 1.10000E+00 1.20000E+00
 -1        28 4.01818E-01 9.70074E-01 1.60000E+00
 -1        29 5.55112E-17 1.05000E+00 1.60000E+00
 -1        30 3.82683E-01 9.23880E-01 1.20000E+00
 -1        31 1.95090E-01 9.80785E-01 1.60000E+00
 -1        32 5.55112E-17 1.00000E+00 1.20000E+00
 -1        33 4.20952E-01 1.01627E+00 2.40000E+00
 -1        34 5.55112E-17 1.10000E+00 2.40000E+00
 -1        35 3.82683E-01 9.23880E-01 2.40000E+00
 -1        36 5.55112E-17 1.00000E+00 2.40000E+00
 -1        37 4.20952E-01 1.01627E+00 2.00000E+00
 -1        38 2.14599E-01 1.07886E+00 2.40000E+00
 -1        39 5.55112E-17 1.10000E+00 2.00000E+00
 -1        40 4.01818E-01 9.70074E-01 2.40000E+00
 -1        41 5.55112E-17 1.05000E+00 2.40000E+00
 -1        42 3.82683E-01 9.23880E-01 2.00000E+00
 -1        43 1.95090E-01 9.80785E-01 2.40000E+00
 -1        44 5.55112E-17 1.00000E+00 2.00000E+00
 -1        45 4.20952E-01 1.01627E+00 3.20000E+00
 -1        46 5.55112E-17 1.10000E+00 3.20000E+00
 -1        47 3.82683E-01 9.23880E-01 3.20000E+00
 -1        48 5.55112E-17 1.00000E+00 3.20000E+00
 -1        49 4.20952E-01 1.01627E+00 2.80000E+00
 -1        50 2.14599E-01 1.07886E+00 3.20000E+00
 -1        51 5.55112E-17 1.10000E+00 2.80000E+00
 -1        52 4.01818E-01 9.70074E-01 3.20000E+00
 -1        53 5.55112E-17 1.05000E+00 3.20000E+00
 -1        54 3.82683E-01 9.23880E-01 2.80000E+00
 -1        55 1.95090E-01 9.80785E-01 3.20000E+00
 -1        56 5.55112E-17 1.00000E+00 2.80000E+00
 -1        57 4.20952E-01 1.01627E+00 4.00000E+00
 -1        58 5.55112E-17 1.10000E+00 4.00000E+00
 -1        59 3.82683E-01 9.23880E-01 4.00000E+00
 -1        60 5.55112E-17 1.00000E+00 4.00000E+00
 -1        61 4.20952E-01 1.01627E+00 3.60000E+00
 -1        62 2.14599E-01 1.07886E+00 4.00000E+00
 -1        63 5.55112E-17 1.10000E+00 3.60000E+00
 -1        64 4.01818E-01 9.70074E-01 4.00000E+00
 -1        65 5.55112E-17 1.05000E+00 4.00000E+00
 -1        66 3.82683E-01 9.23880E-01 3.60000E+00
 -1        67 1.95090E-01 9.80785E-01 4.00000E+00
 -1        68 5.55112E-17 1.00000E+00 3.60000E+00
 -1        69 4.20952E-01 1.01627E+00 4.80000E+00
 -1        70 5.55112E-17 1.10000E+00 4.80000E+00
 -1        71 3.82683E-01 9.23880E-01 4.80000E+00
 -1        72 5.55112E-17 1.00000E+00 4.80000E+00
 -1        73 4.20952E-01 1.01627E+00 4.40000E+00
 -1        74 2.14599E-01 1.07886E+00 4.80000E+00
 -1        75 5.55112E-17 1.10000E+00 4.40000E+00
 -1        76 4.01818E-01 9.70074E-01 4.80000E+00
 -1        77 5.55112E-17 1.05000E+00 4.80000E+00
 -1        78 3.82683E-01 9.23880E-01 4.40000E+00
 -1        79 1.95090E-01 9.80785E-01 4.80000E+00
 -1        80 5.55112E-17 1.00000E+00 4.40000E+00
 -1        81 4.20952E-01 1.01627E+00 5.60000E+00
 -1        82 5.55112E-17 1.10000E+00 5.60000E+00
 -1        83 3.82683E-01 9.23880E-01 5.60000E+00
 -1        84 5.55112E-17 1.00000E+00 5.60000E+00
 -1        85 4.20952E-01 1.01627E+00 5.20000E+00
 -1        86 2.14599E-01 1.07886E+00 5.60000E+00
 -1        87 5.55112E-17 1.10000E+00 5.20000E+00
 -1        88 4.01818E-01 9.70074E-01 5.60000E+00
 -1        89 5.55112E-17 1.05000E+00 5.60000E+00
 -1        90 3.82683E-01 9.23880E-01 5.20000E+00
 -1        91 1.95090E-01 9.80785E-01 5.60000E+00
 -1        92 5.55112E-17 1.00000E+00 5.20000E+00
 -1        93 4.20952E-01 1.01627E+00 6.40000E+00
 -1        94 5.55112E-17 1.10000E+00 6.40000E+00
 -1        95 3.82683E-01 9.23880E-01 6.40000E+00
 -1        96 5.55112E-17 1.00000E+00 6.40000E+00
 -1        97 4.20952E-01 1.01627E+00 6.00000E+00
 -1        98 2.14599E-01 1.07886E+00 6.40000E+00
 -1        99 5.55112E-17 1.10000E+00 6.00000E+00
 -1       100 4.01818E-01 9.70074E-01 6.40000E+00
 -1       101 5.55112E-17 1.05000E+00 6.40000E+00
 -1       102 3.82683E-01 9.23880E-01 6.00000E+00
 -1       103 1.95090E-01 9.80785E-01 6.40000E+00
 -1       104 5.55112E-17 1.00000E+00 6.00000E+00
 -1       105 4.20952E-01 1.01627E+00 7.20000E+00
 -1       106 5.55112E-17 1.10000E+00 7.20000E+00
 -1       107 3.82683E-01 9.23880E-01 7.20000E+00
 -1       108 5.55112E-17 1.00000E+00 7.20000E+00
 -1       109 4.20952E-01 1.01627E+00 6.80000E+00
 -1       110 2.14599E-01 1.07886E+00 7.20000E+00
 -1       111 5.55112E-17 1.10000E+00 6.80000E+00
 -1       112 4.01818E-01 9.70074E-01 7.20000E+00
 -1       113 5.55112E-17 1.05000E+00 7.20000E+00
 -1       114 3.82683E-01 9.23880E-01 6.80000E+00
 -1       115 1.95090E-01 9.80785E-01 7.20000E+00
 -1       116 5.55112E-17 1.00000E+00 6.80000E+00
 -1       117 4.20952E-01 1.01627E+00 8.00000E+00
 -1       118 5.55112E-17 1.10000E+00 8.00000E+00
 -1       119 3.82683E-01 9.23880E-01 8.00000E+00
 -1       120 5.55112E-17 1.00000E+00 8.00000E+00
 -1       121 4.20952E-01 1.01627E+00 7.60000E+00
 -1       122 2.14599E-01 1.07886E+00 8.00000E+00
 -1       123 5.55112E-17 1.10000E+00 7.60000E+00
 -1       124 4.01818E-01 9.70074E-01 8.00000E+00
 -1       125 5.55112E-17 1.05000E+00 8.00000E+00
 -1       126 3.82683E-01 9.23880E-01 7.60000E+00
 -1       127 1.95090E-01 9.80785E-01 8.00000E+00
 -1       128 5.55112E-17 1.00000E+00 7.60000E+00
 -1       129 7.77817E-01 7.77817E-01 0.00000E+00
 -1       130 7.77817E-01 7.77817E-01 8.00000E-01
 -1       131 7.07107E-01 7.07107E-01 0.00000E+00
 -1       132 7.07107E-01 7.07107E-01 8.00000E-01
 -1       133 6.11127E-01 9.14617E-01 0.00000E+00
 -1       134 7.77817E-01 7.77817E-01 4.00000E-01
 -1       135 6.11127E-01 9.14617E-01 8.00000E-01
 -1       136 7.42462E-01 7.42462E-01-1.77636E-15
 -1       137 7.42462E-01 7.42462E-01 8.00000E-01
 -1       138 5.55570E-01 8.31470E-01 0.00000E+00
 -1       139 7.07107E-01 7.07107E-01 4.00000E-01
 -1       140 5.55570E-01 8.31470E-01 8.00000E-01
 -1       141 7.77817E-01 7.77817E-01 1.60000E+00
 -1       142 7.07107E-01 7.07107E-01 1.60000E+00
 -1       143 7.77817E-01 7.77817E-01 1.20000E+00
 -1       144 6.11127E-01 9.14617E-01 1.60000E+00
 -1       145 7.42462E-01 7.42462E-01 1.60000E+00
 -1       146 7.07107E-01 7.07107E-01 1.20000E+00
 -1       147 5.55570E-01 8.31470E-01 1.60000E+00
 -1       148 7.77817E-01 7.77817E-01 2.40000E+00
 -1       149 7.07107E-01 7.07107E-01 2.40000E+00
 -1       150 7.77817E-01 7.77817E-01 2.00000E+00
 -1       151 6.11127E-01 9.14617E-01 2.40000E+00
 -1       152 7.42462E-01 7.42462E-01 2.40000E+00
 -1       153 7.07107E-01 7.07107E-01 2.00000E+00
 -1       154 5.55570E-01 8.31470E-01 2.40000E+00
 -1       155 7.77817E-01 7.77817E-01 3.20000E+00
 -1       156 7.07107E-01 7.07107E-01 3.20000E+00
 -1       157 7.77817E-01 7.77817E-01 2.80000E+00
 -1       158 6.11127E-01 9.14617E-01 3.20000E+00
 -1       159 7.42462E-01 7.42462E-01 3.20000E+00
 -1       160 7.07107E-01 7.07107E-01 2.80000E+00
 -1       161 5.55570E-01 8.31470E-01 3.20000E+00
 -1       162 7.77817E-01 7.77817E-01 4.00000E+00
 -1       163 7.07107E-01 7.07107E-01 4.00000E+00
 -1       164 7.77817E-01 7.77817E-01 3.60000E+00
 -1       165 6.11127E-01 9.14617E-01 4.00000E+00
 -1       166 7.42462E-01 7.42462E-01 4.00000E+00
 -1       167 7.07107E-01 7.07107E-01 3.60000E+00
 -1       168 5.55570E-01 8.31470E-01 4.00000E+00
 -1       169 7.77817E-01 7.77817E-01 4.80000E+00
 -1       170 7.07107E-01 7.07107E-01 4.80000E+00
 -1       171 7.77817E-01 7.77817E-01 4.40000E+00
 -1       172 6.11127E-01 9.14617E-01 4.80000E+00
 -1       173 7.42462E-01 7.42462E-01 4.80000E+00
 -1       174 7.07107E-01 7.07107E-01 4.40000E+00
 -1       175 5.55570E-01 8.31470E-01 4.80000E+00
 -1       176 7.77817E-01 7.77817E-01 5.60000E+00
 -1       177 7.07107E-01 7.07107E-01 5.60000E+00
 -1       178 7.77817E-01 7.77817E-01 5.20000E+00
 -1       179 6.11127E-01 9.14617E-01 5.60000E+00
 -1       180 7.42462E-01 7.42462E-01 5.60000E+00
 -1       181 7.07107E-01 7.07107E-01 5.20000E+00
 -1       182 5.55570E-01 8.31470E-01 5.60000E+00
 -1       183 7.77817E-01 7.77817E-01 6.40000E+00
 -1       184 7.07107E-01 7.07107E-01 6.40000E+00
 -1       185 7.77817E-01 7.77817E-01 6.00000E+00
 -1       186 6.11127E-01 9.14617E-01 6.40000E+00
 -1       187 7.42462E-01 7.42462E-01 6.40000E+00
 -1       188 7.07107E-01 7.07107E-01 6.00000E+00
 -1       189 5.55570E-01 8.31470E-01 6.40000E+00
 -1       190 7.77817E-01 7.77817E-01 7.20000E+00
 -1       191 7.07107E-01 7.07107E-01 7.20000E+00
 -1       192 7.77817E-01 7.77817E-01 6.80000E+00
 -1       193 6.11127E-01 9.14617E-01 7.20000E+00
 -1       194 7.42462E-01 7.42462E-01 7.20000E+00
 -1       195 7.07107E-01 7.07107E-01 6.80000E+00
 -1       196 5.55570E-01 8.31470E-01 7.20000E+00
 -1       197 7.77817E-01 7.77817E-01 8.00000E+00
 -1       198 7.07107E-01 7.07107E-01 8.00000E+00
 -1       199 7.77817E-01 7.77817E-01 7.60000E+00
 -1       200 6.11127E-01 9.14617E-01 8.00000E+00
 -1       201 7.42462E-01 7.42462E-01 8.00000E+00
 -1       202 7.07107E-01 7.07107E-01 7.60000E+00
 -1       203 5.55570E-01 8.31470E-01 8.00000E+00
 -1       204 1.01627E+00 4.20952E-01 0.00000E+00
 -1       205 1.01627E+00 4.20952E-01 8.00000E-01
 -1       206 9.23880E-01 3.82683E-01 0.00000E+00
 -1       207 9.23880E-01 3.82683E-01 8.00000E-01
 -1       208 9.14617E-01 6.11127E-01 0.00000E+00
 -1       209 1.01627E+00 4.20952E-01 4.00000E-01
 -1       210 9.14617E-01 6.11127E-01 8.00000E-01
 -1       211 9.70074E-01 4.01818E-01 0.00000E+00
 -1       212 9.70074E-01 4.01818E-01 8.00000E-01
 -1       213 8.31470E-01 5.55570E-01 0.00000E+00
 -1       214 9.23880E-01 3.82683E-01 4.00000E-01
 -1       215 8.31470E-01 5.55570E-01 8.00000E-01
 -1       216 1.01627E+00 4.20952E-01 1.60000E+00
 -1       217 9.23880E-01 3.82683E-01 1.60000E+00
 -1       218 1.01627E+00 4.20952E-01 1.20000E+00
 -1       219 9.14617E-01 6.11127E-01 1.60000E+00
 -1       220 9.70074E-01 4.01818E-01 1.60000E+00
 -1       221 9.23880E-01 3.82683E-01 1.20000E+00
 -1       222 8.31470E-01 5.55570E-01 1.60000E+00
 -1       223 1.01627E+00 4.20952E-01 2.40000E+00
 -1       224 9.23880E-01 3.82683E-01 2.40000E+00
 -1       225 1.01627E+00 4.20952E-01 2.00000E+00
 -1       226 9.14617E-01 6.11127E-01 2.40000E+00
 -1       227 9.70074E-01 4.01818E-01 2.40000E+00
 -1       228 9.23880E-01 3.82683E-01 2.00000E+00
 -1       229 8.31470E-01 5.55570E-01 2.40000E+00
 -1       230 1.01627E+00 4.20952E-01 3.20000E+00
 -1       231 9.23880E-01 3.82683E-01 3.20000E+00
 -1       232 1.01627E+00 4.20952E-01 2.80000E+00
 -1       233 9.14617E-01 6.11127E-01 3.20000E+00
 -1       234 9.70074E-01 4.01818E-01 3.20000E+00
 -1       235 9.23880E-01 3.82683E-01 2.80000E+00
 -1       236 8.31470E-01 5.55570E-01 3.20000E+00
 -1       237 1.01627E+00 4.20952E-01 4.00000E+00
 -1       238 9.23880E-01 3.82683E-01 4.00000E+00
 -1       239 1.01627E+00 4.20952E-01 3.60000E+00
 -1       240 9.14617E-01 6.11127E-01 4.00000E+00
 -1       241 9.70074E-01 4.01818E-01 4.00000E+00
 -1       242 9.23880E-01 3.82683E-01 3.60000E+00
 -1       243 8.31470E-01 5.55570E-01 4.00000E+00
 -1       244 1.01627E+00 4.20952E-01 4.80000E+00
 -1       245 9.23880E-01 3.82683E-01 4.80000E+00
 -1       246 1.01627E+00 4.20952E-01 4.40000E+00
 -1       247 9.14617E-01 6.11127E-01 4.80000E+00
 -1       248 9.70074E-01 4.01818E-01 4.80000E+00
 -1       249 9.23880E-01 3.82683E-01 4.40000E+00
 -1       250 8.31470E-01 5.55570E-01 4.80000E+00
 -1       251 1.01627E+00 4.20952E-01 5.60000E+00
 -1       252 9.23880E-01 3.82683E-01 5.60000E+00
 -1       253 1.01627E+00 4.20952E-01 5.20000E+00
 -1       254 9.14617E-01 6.11127E-01 5.60000E+00
 -1       255 9.70074E-01 4.01818E-01 5.60000E+00
 -1       256 9.23880E-01 3.82683E-01 5.20000E+00
 -1       257 8.31470E-01 5.55570E-01 5.60000E+00
 -1       258 1.01627E+00 4.20952E-01 6.40000E+00
 -1       259 9.23880E-01 3.82683E-01 6.40000E+00
 -1       260 1.01627E+00 4.20952E-01 6.00000E+00
 -1       261 9.14617E-01 6.11127E-01 6.40000E+00
 -1       262 9.70074E-01 4.01818E-01 6.40000E+00
 -1       263 9.23880E-01 3.82683E-01 6.00000E+00
 -1       264 8.31470E-01 5.55570E-01 6.40000E+00
 -1       265 1.01627E+00 4.20952E-01 7.20000E+00
 -1       266 9.23880E-01 3.82683E-01 7.20000E+00
 -1       267 1.01627E+00 4.20952E-01 6.80000E+00
 -1       268 9.14617E-01 6.11127E-01 7.20000E+00
 -1       269 9.70074E-01 4.01818E-01 7.20000E+00
 -1       270 9.23880E-01 3.82683E-01 6.80000E+00
 -1       271 8.31470E-01 5.55570E-01 7.20000E+00
 -1       272 1.01627E+00 4.20952E-01 8.00000E+00
 -1       273 9.23880E-01 3.82683E-01 8.00000E+00
 -1       274 1.01627E+00 4.20952E-01 7.60000E+00
 -1       275 9.14617E-01 6.11127E-01 8.00000E+00
 -1       276 9.70074E-01 4.01818E-01 8.00000E+00
 -1       277 9.23880E-01 3.82683E-01 7.60000E+00
 -1       278 8.31470E-01 5.55570E-01 8.00000E+00
 -1       279 1.10000E+00 0.00000E+00 0.00000E+00
 -1       280 1.10000E+00 0.00000E+00 8.00000E-01
 -1       281 1.00000E+00 0.00000E+00 0.00000E+00
 -1       282 1.00000E+00 0.00000E+00 8.00000E-01
 -1       283 1.07886E+00 2.14599E-01 0.00000E+00
 -1       284 1.10000E+00 0.00000E+00 4.00000E-01
 -1       285 1.07886E+00 2.14599E-01 8.00000E-01
 -1       286 1.05000E+00 0.00000E+00 0.00000E+00
 -1       287 1.05000E+00 0.00000E+00 8.00000E-01
 -1       288 9.80785E-01 1.95090E-01 0.00000E+00
 -1       289 1.00000E+00 0.00000E+00 4.00000E-01
 -1       290 9.80785E-01 1.95090E-01 8.00000E-01
 -1       291 1.10000E+00 0.00000E+00 1.60000E+00
 -1       292 1.00000E+00 0.00000E+00 1.60000E+00
 -1       293 1.10000E+00 0.00000E+00 1.20000E+00
 -1       294 1.07886E+00 2.14599E-01 1.60000E+00
 -1       295 1.05000E+00 0.00000E+00 1.60000E+00
 -1       296 1.00000E+00 0.00000E+00 1.20000E+00
 -1       297 9.80785E-01 1.95090E-01 1.60000E+00
 -1       298 1.10000E+00 0.00000E+00 2.40000E+00
 -1       299 1.00000E+00 0.00000E+00 2.40000E+00
 -1       300 1.10000E+00 0.00000E+00 2.00000E+00
 -1       301 1.07886E+00 2.14599E-01 2.40000E+00
 -1       302 1.05000E+00 0.00000E+00 2.40000E+00
 -1       303 1.00000E+00 0.00000E+00 2.00000E+00
 -1       304 9.80785E-01 1.95090E-01 2.40000E+00
 -1       305 1.10000E+00 0.00000E+00 3.20000E+00
 -1       306 1.00000E+00 0.00000E+00 3.20000E+00
 -1       307 1.10000E+00 0.00000E+00 2.80000E+00
 -1       308 1.07886E+00 2.14599E-01 3.20000E+00
 -1       309 1.05000E+00 0.00000E+00 3.20000E+00
 -1       310 1.00000E+00 0.00000E+00 2.80000E+00
 -1       311 9.80785E-01 1.95090E-01 3.20000E+00
 -1       312 1.10000E+00 0.00000E+00 4.00000E+00
 -1       313 1.00000E+00 0.00000E+00 4.00000E+00
 -1       314 1.10000E+00 0.00000E+00 3.60000E+00
 -1       315 1.07886E+00 2.14599E-01 4.00000E+00
 -1       316 1.05000E+00 0.00000E+00 4.00000E+00
 -1       317 1.00000E+00 0.00000E+00 3.60000E+00
 -1       318 9.80785E-01 1.95090E-01 4.00000E+00
 -1       319 1.10000E+00 0.00000E+00 4.80000E+00
 -1       320 1.00000E+00 0.00000E+00 4.80000E+00
 -1       321 1.10000E+00 0.00000E+00 4.40000E+00
 -1       322 1.07886E+00 2.14599E-01 4.80000E+00
 -1       323 1.05000E+00 0.00000E+00 4.80000E+00
 -1       324 1.00000E+00 0.00000E+00 4.40000E+00
 -1       325 9.80785E-01 1.95090E-01 4.80000E+00
 -1       326 1.10000E+00 0.00000E+00 5.60000E+00
 -1       327 1.00000E+00 0.00000E+00 5.60000E+00
 -1       328 1.10000E+00 0.00000E+00 5.20000E+00
 -1       329 1.07886E+00 2.14599E-01 5.60000E+00
 -1       330 1.05000E+00 0.00000E+00 5.60000E+00
 -1       331 1.00000E+00 0.00000E+00 5.20000E+00
 -1       332 9.80785E-01 1.95090E-01 5.60000E+00
 -1       333 1.10000E+00 0.00000E+00 6.40000E+00
 -1       334 1.00000E+00 0.00000E+00 6.40000E+00
 -1       335 1.10000E+00 0.00000E+00 6.00000E+00
 -1       336 1.07886E+00 2.14599E-01 6.40000E+00
 -1       337 1.05000E+00 0.00000E+00 6.40000E+00
 -1       338 1.00000E+00 0.00000E+00 6.00000E+00
 -1       339 9.80785E-01 1.95090E-01 6.40000E+00
 -1       340 1.10000E+00 0.00000E+00 7.20000E+00
 -1       341 1.00000E+00 0.00000E+00 7.20000E+00
 -1       342 1.10000E+00 0.00000E+00 6.80000E+00
 -1       343 1.07886E+00 2.14599E-01 7.20000E+00
 -1       344 1.05000E+00 0.00000E+00 7.20000E+00
 -1       345 1.00000E+00 0.00000E+00 6.80000E+00
 -1       346 9.80785E-01 1.95090E-01 7.20000E+00
 -1       347 1.10000E+00 0.00000E+00 8.00000E+00
 -1       348 1.00000E+00 0.00000E+00 8.00000E+00
 -1       349 1.10000E+00 0.00000E+00 7.60000E+00
 -1       350 1.07886E+00 2.14599E-01 8.00000E+00
 -1       351 1.05000E+00 0.00000E+00 8.00000E+00
 -1       352 1.00000E+00 0.00000E+00 7.60000E+00
 -1       353 9.80785E-01 1.95090E-01 8.00000E+00
 -1       354-1.10000E+00 1.22867E-16 0.00000E+00
 -1       355-1.01627E+00 4.20952E-01 0.00000E+00
 -1       356-1.01627E+00 4.20952E-01 8.00000E-01
 -1       357-1.10000E+00 1.22867E-16 8.00000E-01
 -1       358-1.00000E+00 1.16743E-16 0.00000E+00
 -1       359-9.23880E-01 3.82683E-01 0.00000E+00
 -1       360-9.23880E-01 3.82683E-01 8.00000E-01
 -1       361-1.00000E+00 1.16743E-16 8.00000E-01
 -1       362-1.07886E+00 2.14599E-01 0.00000E+00
 -1       363-1.01627E+00 4.20952E-01 4.00000E-01
 -1       364-1.07886E+00 2.14599E-01 8.00000E-01
 -1       365-1.10000E+00 1.22867E-16 4.00000E-01
 -1       366-1.05000E+00 1.19805E-16 0.00000E+00
 -1       367-9.70074E-01 4.01818E-01-8.88178E-16
 -1       368-9.70074E-01 4.01818E-01 8.00000E-01
 -1       369-1.05000E+00 1.19805E-16 8.00000E-01
 -1       370-9.80785E-01 1.95090E-01 0.00000E+00
 -1       371-9.23880E-01 3.82683E-01 4.00000E-01
 -1       372-9.80785E-01 1.95090E-01 8.00000E-01
 -1       373-1.00000E+00 1.16743E-16 4.00000E-01
 -1       374-1.01627E+00 4.20952E-01 1.60000E+00
 -1       375-1.10000E+00 1.22867E-16 1.60000E+00
 -1       376-9.23880E-01 3.82683E-01 1.60000E+00
 -1       377-1.00000E+00 1.16743E-16 1.60000E+00
 -1       378-1.01627E+00 4.20952E-01 1.20000E+00
 -1       379-1.07886E+00 2.14599E-01 1.60000E+00
 -1       380-1.10000E+00 1.22867E-16 1.20000E+00
 -1       381-9.70074E-01 4.01818E-01 1.60000E+00
 -1       382-1.05000E+00 1.19805E-16 1.60000E+00
 -1       383-9.23880E-01 3.82683E-01 1.20000E+00
 -1       384-9.80785E-01 1.95090E-01 1.60000E+00
 -1       385-1.00000E+00 1.16743E-16 1.20000E+00
 -1       386-1.01627E+00 4.20952E-01 2.40000E+00
 -1       387-1.10000E+00 1.22867E-16 2.40000E+00
 -1       388-9.23880E-01 3.82683E-01 2.40000E+00
 -1       389-1.00000E+00 1.16743E-16 2.40000E+00
 -1       390-1.01627E+00 4.20952E-01 2.00000E+00
 -1       391-1.07886E+00 2.14599E-01 2.40000E+00
 -1       392-1.10000E+00 1.22867E-16 2.00000E+00
 -1       393-9.70074E-01 4.01818E-01 2.40000E+00
 -1       394-1.05000E+00 1.19805E-16 2.40000E+00
 -1       395-9.23880E-01 3.82683E-01 2.00000E+00
 -1       396-9.80785E-01 1.95090E-01 2.40000E+00
 -1       397-1.00000E+00 1.16743E-16 2.00000E+00
 -1       398-1.01627E+00 4.20952E-01 3.20000E+00
 -1       399-1.10000E+00 1.22867E-16 3.20000E+00
 -1       400-9.23880E-01 3.82683E-01 3.20000E+00
 -1       401-1.00000E+00 1.16743E-16 3.20000E+00
 -1       402-1.01627E+00 4.20952E-01 2.80000E+00
 -1       403-1.07886E+00 2.14599E-01 3.20000E+00
 -1       404-1.10000E+00 1.22867E-16 2.80000E+00
 -1       405-9.70074E-01 4.01818E-01 3.20000E+00
 -1       406-1.05000E+00 1.19805E-16 3.20000E+00
 -1       407-9.23880E-01 3.82683E-01 2.80000E+00
 -1       408-9.80785E-01 1.95090E-01 3.20000E+00
 -1       409-1.00000E+00 1.16743E-16 2.80000E+00
 -1       410-1.01627E+00 4.20952E-01 4.00000E+00
 -1       411-1.10000E+00 1.22867E-16 4.00000E+00
 -1       412-9.23880E-01 3.82683E-01 4.00000E+00
 -1       413-1.00000E+00 1.16743E-16 4.00000E+00
 -1       414-1.01627E+00 4.20952E-01 3.60000E+00
 -1       415-1.07886E+00 2.14599E-01 4.00000E+00
 -1       416-1.10000E+00 1.22867E-16 3.60000E+00
 -1       417-9.70074E-01 4.01818E-01 4.00000E+00
 -1       418-1.05000E+00 1.19805E-16 4.00000E+00
 -1       419-9.23880E-01 3.82683E-01 3.60000E+00
 -1       420-9.80785E-01 1.95090E-01 4.00000E+00
 -1       421-1.00000E+00 1.16743E-16 3.60000E+00
 -1       422-1.01627E+00 4.20952E-01 4.80000E+00
 -1       423-1.10000E+00 1.22867E-16 4.80000E+00
 -1       424-9.23880E-01 3.82683E-01 4.80000E+00
 -1       425-1.00000E+00 1.16743E-16 4.80000E+00
 -1       426-1.01627E+00 4.20952E-01 4.40000E+00
 -1       427-1.07886E+00 2.14599E-01 4.80000E+00
 -1       428-1.10000E+00 1.22867E-16 4.40000E+00
 -1       429-9.70074E-01 4.01818E-01 4.80000E+00
 -1       430-1.05000E+00 1.19805E-16 4.80000E+00
 -1       431-9.23880E-01 3.82683E-01 4.40000E+00
 -1       432-9.80785E-01 1.95090E-01 4.80000E+00
 -1       433-1.00000E+00 1.16743E-16 4.40000E+00
 -1       434-1.01627E+00 4.20952E-01 5.60000E+00
 -1       435-1.10000E+00 1.22867E-16 5.60000E+00
 -1       436-9.23880E-01 3.82683E-01 5.60000E+00
 -1       437-1.00000E+00 1.16743E-16 5.60000E+00
 -1       438-1.01627E+00 4.20952E-01 5.20000E+00
 -1       439-1.07886E+00 2.14599E-01 5.60000E+00
 -1       440-1.10000E+00 1.22867E-16 5.20000E+00
 -1       441-9.70074E-01 4.01818E-01 5.60000E+00
 -1       442-1.05000E+00 1.19805E-16 5.60000E+00
 -1       443-9.23880E-01 3.82683E-01 5.20000E+00
 -1       444-9.80785E-01 1.95090E-01 5.60000E+00
 -1       445-1.00000E+00 1.16743E-16 5.20000E+00
 -1       446-1.01627E+00 4.20952E-01 6.40000E+00
 -1       447-1.10000E+00 1.22867E-16 6.40000E+00
 -1       448-9.23880E-01 3.82683E-01 6.40000E+00
 -1       449-1.00000E+00 1.16743E-16 6.40000E+00
 -1       450-1.01627E+00 4.20952E-01 6.00000E+00
 -1       451-1.07886E+00 2.14599E-01 6.40000E+00
 -1       452-1.10000E+00 1.22867E-16 6.00000E+00
 -1       453-9.70074E-01 4.01818E-01 6.40000E+00
 -1       454-1.05000E+00 1.19805E-16 6.40000E+00
 -1       455-9.23880E-01 3.82683E-01 6.00000E+00
 -1       456-9.80785E-01 1.95090E-01 6.40000E+00
 -1       457-1.00000E+00 1.16743E-16 6.00000E+00
 -1       458-1.01627E+00 4.20952E-01 7.20000E+00
 -1       459-1.10000E+00 1.22867E-16 7.20000E+00
 -1       460-9.23880E-01 3.82683E-01 7.20000E+00
 -1       461-1.00000E+00 1.16743E-16 7.20000E+00
 -1       462-1.01627E+00 4.20952E-01 6.80000E+00
 -1       463-1.07886E+00 2.14599E-01 7.20000E+00
 -1       464-1.10000E+00 1.22867E-16 6.80000E+00
 -1       465-9.70074E-01 4.01818E-01 7.20000E+00
 -1       466-1.05000E+00 1.19805E-16 7.20000E+00
 -1       467-9.23880E-01 3.82683E-01 6.80000E+00
 -1       468-9.80785E-01 1.95090E-01 7.20000E+00
 -1       469-1.00000E+00 1.16743E-16 6.80000E+00
 -1       470-1.01627E+00 4.20952E-01 8.00000E+00
 -1       471-1.10000E+00 1.22867E-16 8.00000E+00
 -1       472-9.23880E-01 3.82683E-01 8.00000E+00
 -1       473-1.00000E+00 1.16743E-16 8.00000E+00
 -1       474-1.01627E+00 4.20952E-01 7.60000E+00
 -1       475-1.07886E+00 2.14599E-01 8.00000E+00
 -1       476-1.10000E+00 1.22867E-16 7.60000E+00
 -1       477-9.70074E-01 4.01818E-01 8.00000E+00
 -1       478-1.05000E+00 1.19805E-16 8.00000E+00
 -1       479-9.23880E-01 3.82683E-01 7.60000E+00
 -1       480-9.80785E-01 1.95090E-01 8.00000E+00
 -1       481-1.00000E+00 1.16743E-16 7.60000E+00
 -1       482-7.77817E-01 7.77817E-01 0.00000E+00
 -1       483-7.77817E-01 7.77817E-01 8.00000E-01
 -1       484-7.07107E-01 7.07107E-01 0.00000E+00
 -1       485-7.07107E-01 7.07107E-01 8.00000E-01
 -1       486-9.14617E-01 6.11127E-01 0.00000E+00
 -1       487-7.77817E-01 7.77817E-01 4.00000E-01
 -1       488-9.14617E-01 6.11127E-01 8.00000E-01
 -1       489-7.42462E-01 7.42462E-01 8.88178E-16
 -1       490-7.42462E-01 7.42462E-01 8.00000E-01
 -1       491-8.31470E-01 5.55570E-01 0.00000E+00
 -1       492-7.07107E-01 7.07107E-01 4.00000E-01
 -1       493-8.31470E-01 5.55570E-01 8.00000E-01
 -1       494-7.77817E-01 7.77817E-01 1.60000E+00
 -1       495-7.07107E-01 7.07107E-01 1.60000E+00
 -1       496-7.77817E-01 7.77817E-01 1.20000E+00
 -1       497-9.14617E-01 6.11127E-01 1.60000E+00
 -1       498-7.42462E-01 7.42462E-01 1.60000E+00
 -1       499-7.07107E-01 7.07107E-01 1.20000E+00
 -1       500-8.31470E-01 5.55570E-01 1.60000E+00
 -1       501-7.77817E-01 7.77817E-01 2.40000E+00
 -1       502-7.07107E-01 7.07107E-01 2.40000E+00
 -1       503-7.77817E-01 7.77817E-01 2.00000E+00
 -1       504-9.14617E-01 6.11127E-01 2.40000E+00
 -1       505-7.42462E-01 7.42462E-01 2.40000E+00
 -1       506-7.07107E-01 7.07107E-01 2.00000E+00
 -1       507-8.31470E-01 5.55570E-01 2.40000E+00
 -1       508-7.77817E-01 7.77817E-01 3.20000E+00
 -1       509-7.07107E-01 7.07107E-01 3.20000E+00
 -1       510-7.77817E-01 7.77817E-01 2.80000E+00
 -1       511-9.14617E-01 6.11127E-01 3.20000E+00
 -1       512-7.42462E-01 7.42462E-01 3.20000E+00
 -1       513-7.07107E-01 7.07107E-01 2.80000E+00
 -1       514-8.31470E-01 5.55570E-01 3.20000E+00
 -1       515-7.77817E-01 7.77817E-01 4.00000E+00
 -1       516-7.07107E-01 7.07107E-01 4.00000E+00
 -1       517-7.77817E-01 7.77817E-01 3.60000E+00
 -1       518-9.14617E-01 6.11127E-01 4.00000E+00
 -1       519-7.42462E-01 7.42462E-01 4.00000E+00
 -1       520-7.07107E-01 7.07107E-01 3.60000E+00
 -1       521-8.31470E-01 5.55570E-01 4.00000E+00
 -1       522-7.77817E-01 7.77817E-01 4.80000E+00
 -1       523-7.07107E-01 7.07107E-01 4.80000E+00
 -1       524-7.77817E-01 7.77817E-01 4.40000E+00
 -1       525-9.14617E-01 6.11127E-01 4.80000E+00
 -1       526-7.42462E-01 7.42462E-01 4.80000E+00
 -1       527-7.07107E-01 7.07107E-01 4.40000E+00
 -1       528-8.31470E-01 5.55570E-01 4.80000E+00
 -1       529-7.77817E-01 7.77817E-01 5.60000E+00
 -1       530-7.07107E-01 7.07107E-01 5.60000E+00
 -1       531-7.77817E-01 7.77817E-01 5.20000E+00
 -1       532-9.14617E-01 6.11127E-01 5.60000E+00
 -1       533-7.42462E-01 7.42462E-01 5.60000E+00
 -1       534-7.07107E-01 7.07107E-01 5.20000E+00
 -1       535-8.31470E-01 5.55570E-01 5.60000E+00
 -1       536-7.77817E-01 7.77817E-01 6.40000E+00
 -1       537-7.07107E-01 7.07107E-01 6.40000E+00
 -1       538-7.77817E-01 7.77817E-01 6.00000E+00
 -1       539-9.14617E-01 6.11127E-01 6.40000E+00
 -1       540-7.42462E-01 7.42462E-01 6.40000E+00
 -1       541-7.07107E-01 7.07107E-01 6.00000E+00
 -1       542-8.31470E-01 5.55570E-01 6.40000E+00
 -1       543-7.77817E-01 7.77817E-01 7.20000E+00
 -1       544-7.07107E-01 7.07107E-01 7.20000E+00
 -1       545-7.77817E-01 7.77817E-01 6.80000E+00
 -1       546-9.14617E-01 6.11127E-01 7.20000E+00
 -1       547-7.42462E-01 7.42462E-01 7.20000E+00
 -1       548-7.07107E-01 7.07107E-01 6.80000E+00
 -1       549-8.31470E-01 5.55570E-01 7.20000E+00
 -1       550-7.77817E-01 7.77817E-01 8.00000E+00
 -1       551-7.07107E-01 7.07107E-01 8.00000E+00
 -1       552-7.77817E-01 7.77817E-01 7.60000E+00
 -1       553-9.14617E-01 6.11127E-01 8.00000E+00
 -1       554-7.42462E-01 7.42462E-01 8.00000E+00
 -1       555-7.07107E-01 7.07107E-01 7.60000E+00
 -1       556-8.31470E-01 5.55570E-01 8.00000E+00
 -1       557-4.20952E-01 1.01627E+00 0.00000E+00
 -1       558-4.20952E-01 1.01627E+00 8.00000E-01
 -1       559-3.82683E-01 9.23880E-01 0.00000E+00
 -1       560-3.82683E-01 9.23880E-01 8.00000E-01
 -1       561-6.11127E-01 9.14617E-01 0.00000E+00
 -1       562-4.20952E-01 1.01627E+00 4.00000E-01
 -1       563-6.11127E-01 9.14617E-01 8.00000E-01
 -1       564-4.01818E-01 9.70074E-01 0.00000E+00
 -1       565-4.01818E-01 9.70074E-01 8.00000E-01
 -1       566-5.55570E-01 8.31470E-01 0.00000E+00
 -1       567-3.82683E-01 9.23880E-01 4.00000E-01
 -1       568-5.55570E-01 8.31470E-01 8.00000E-01
 -1       569-4.20952E-01 1.01627E+00 1.60000E+00
 -1       570-3.82683E-01 9.23880E-01 1.60000E+00
 -1       571-4.20952E-01 1.01627E+00 1.20000E+00
 -1       572-6.11127E-01 9.14617E-01 1.60000E+00
 -1       573-4.01818E-01 9.70074E-01 1.60000E+00
 -1       574-3.82683E-01 9.23880E-01 1.20000E+00
 -1       575-5.55570E-01 8.31470E-01 1.60000E+00
 -1       576-4.20952E-01 1.01627E+00 2.40000E+00
 -1       577-3.82683E-01 9.23880E-01 2.40000E+00
 -1       578-4.20952E-01 1.01627E+00 2.00000E+00
 -1       579-6.11127E-01 9.14617E-01 2.40000E+00
 -1       580-4.01818E-01 9.70074E-01 2.40000E+00
 -1       581-3.82683E-01 9.23880E-01 2.00000E+00
 -1       582-5.55570E-01 8.31470E-01 2.40000E+00
 -1       583-4.20952E-01 1.01627E+00 3.20000E+00