    1C
    1UModel: beam     Date: 10-Mar-1998                                 
    1UUSER                                                              
    1UDATE              21.march.2025                                   
    1UTIME              17:24:40                                        
    1UHOST                                                              
    1UPGM               CalculiX                                        
    1UVERSION           Version DEVELOPMENT                             
    1UCOMPILETIME       Fri Mar 21 15:52:32 CET 2025                    
    1UDIR                                                               
    1UDBN                                                               
    1UMAT    1EL                                                        
    2C                           252                                     1
 -1         1 0.00000E+00 0.00000E+00 0.00000E+00
 -1         2 1.00000E+00 0.00000E+00 0.00000E+00
 -1         3 1.00000E+00 1.00000E+00 0.00000E+00
 -1         4 0.00000E+00 1.00000E+00 0.00000E+00
 -1         5 0.00000E+00 0.00000E+00 8.00000E+00
 -1         6 1.00000E+00 0.00000E+00 8.00000E+00
 -1         7 1.00000E+00 1.00000E+00 8.00000E+00
 -1         8 0.00000E+00 1.00000E+00 8.00000E+00
 -1         9 2.50000E-01 0.00000E+00 0.00000E+00
 -1        10 5.00000E-01 0.00000E+00 0.00000E+00
 -1        11 7.50000E-01 0.00000E+00 0.00000E+00
 -1        12 1.00000E+00 2.50000E-01 0.00000E+00
 -1        13 1.00000E+00 5.00000E-01 0.00000E+00
 -1        14 1.00000E+00 7.50000E-01 0.00000E+00
 -1        15 7.50000E-01 1.00000E+00 0.00000E+00
 -1        16 5.00000E-01 1.00000E+00 0.00000E+00
 -1        17 2.50000E-01 1.00000E+00 0.00000E+00
 -1        18 0.00000E+00 7.50000E-01 0.00000E+00
 -1        19 0.00000E+00 5.00000E-01 0.00000E+00
 -1        20 0.00000E+00 2.50000E-01 0.00000E+00
 -1        21 2.50000E-01 0.00000E+00 8.00000E+00
 -1        22 5.00000E-01 0.00000E+00 8.00000E+00
 -1        23 7.50000E-01 0.00000E+00 8.00000E+00
 -1        24 1.00000E+00 2.50000E-01 8.00000E+00
 -1        25 1.00000E+00 5.00000E-01 8.00000E+00
 -1        26 1.00000E+00 7.50000E-01 8.00000E+00
 -1        27 7.50000E-01 1.00000E+00 8.00000E+00
 -1        28 5.00000E-01 1.00000E+00 8.00000E+00
 -1        29 2.50000E-01 1.00000E+00 8.00000E+00
 -1        30 0.00000E+00 7.50000E-01 8.00000E+00
 -1        31 0.00000E+00 5.00000E-01 8.00000E+00
 -1        32 0.00000E+00 2.50000E-01 8.00000E+00
 -1        33 1.00000E+00 0.00000E+00 5.00000E-01
 -1        34 1.00000E+00 0.00000E+00 1.00000E+00
 -1        35 1.00000E+00 0.00000E+00 1.50000E+00
 -1        36 1.00000E+00 0.00000E+00 2.00000E+00
 -1        38 1.00000E+00 0.00000E+00 3.00000E+00
 -1        39 1.00000E+00 0.00000E+00 3.50000E+00
 -1        40 1.00000E+00 0.00000E+00 4.00000E+00
 -1        41 1.00000E+00 0.00000E+00 4.50000E+00
 -1        42 1.00000E+00 0.00000E+00 5.00000E+00
 -1        43 1.00000E+00 0.00000E+00 5.50000E+00
 -1        44 1.00000E+00 0.00000E+00 6.00000E+00
 -1        45 1.00000E+00 0.00000E+00 6.50000E+00
 -1        46 1.00000E+00 0.00000E+00 7.00000E+00
 -1        47 1.00000E+00 0.00000E+00 7.50000E+00
 -1        48 0.00000E+00 0.00000E+00 7.50000E+00
 -1        49 0.00000E+00 0.00000E+00 7.00000E+00
 -1        50 0.00000E+00 0.00000E+00 6.50000E+00
 -1        51 0.00000E+00 0.00000E+00 6.00000E+00
 -1        52 0.00000E+00 0.00000E+00 5.50000E+00
 -1        53 0.00000E+00 0.00000E+00 5.00000E+00
 -1        54 0.00000E+00 0.00000E+00 4.50000E+00
 -1        55 0.00000E+00 0.00000E+00 4.00000E+00
 -1        56 0.00000E+00 0.00000E+00 3.50000E+00
 -1        57 0.00000E+00 0.00000E+00 3.00000E+00
 -1        59 0.00000E+00 0.00000E+00 2.00000E+00
 -1        60 0.00000E+00 0.00000E+00 1.50000E+00
 -1        61 0.00000E+00 0.00000E+00 1.00000E+00
 -1        62 0.00000E+00 0.00000E+00 5.00000E-01
 -1        63 1.00000E+00 1.00000E+00 5.00000E-01
 -1        64 1.00000E+00 1.00000E+00 1.00000E+00
 -1        65 1.00000E+00 1.00000E+00 1.50000E+00
 -1        66 1.00000E+00 1.00000E+00 2.00000E+00
 -1        68 1.00000E+00 1.00000E+00 3.00000E+00
 -1        69 1.00000E+00 1.00000E+00 3.50000E+00
 -1        70 1.00000E+00 1.00000E+00 4.00000E+00
 -1        71 1.00000E+00 1.00000E+00 4.50000E+00
 -1        72 1.00000E+00 1.00000E+00 5.00000E+00
 -1        73 1.00000E+00 1.00000E+00 5.50000E+00
 -1        74 1.00000E+00 1.00000E+00 6.00000E+00
 -1        75 1.00000E+00 1.00000E+00 6.50000E+00
 -1        76 1.00000E+00 1.00000E+00 7.00000E+00
 -1        77 1.00000E+00 1.00000E+00 7.50000E+00
 -1        78 0.00000E+00 1.00000E+00 5.00000E-01
 -1        79 0.00000E+00 1.00000E+00 1.00000E+00
 -1        80 0.00000E+00 1.00000E+00 1.50000E+00
 -1        81 0.00000E+00 1.00000E+00 2.00000E+00
 -1        83 0.00000E+00 1.00000E+00 3.00000E+00
 -1        84 0.00000E+00 1.00000E+00 3.50000E+00
 -1        85 0.00000E+00 1.00000E+00 4.00000E+00
 -1        86 0.00000E+00 1.00000E+00 4.50000E+00
 -1        87 0.00000E+00 1.00000E+00 5.00000E+00
 -1        88 0.00000E+00 1.00000E+00 5.50000E+00
 -1        89 0.00000E+00 1.00000E+00 6.00000E+00
 -1        90 0.00000E+00 1.00000E+00 6.50000E+00
 -1        91 0.00000E+00 1.00000E+00 7.00000E+00
 -1        92 0.00000E+00 1.00000E+00 7.50000E+00
 -1        93 5.00000E-01 2.50000E-01 0.00000E+00
 -1        94 2.50000E-01 5.00000E-01 0.00000E+00
 -1        95 5.00000E-01 5.00000E-01 0.00000E+00
 -1        96 7.50000E-01 5.00000E-01 0.00000E+00
 -1        97 5.00000E-01 7.50000E-01 0.00000E+00
 -1        98 5.00000E-01 2.50000E-01 8.00000E+00
 -1        99 2.50000E-01 5.00000E-01 8.00000E+00
 -1       100 5.00000E-01 5.00000E-01 8.00000E+00
 -1       101 7.50000E-01 5.00000E-01 8.00000E+00
 -1       102 5.00000E-01 7.50000E-01 8.00000E+00
 -1       103 5.00000E-01 0.00000E+00 5.00000E-01
 -1       104 2.50000E-01 0.00000E+00 1.00000E+00
 -1       105 5.00000E-01 0.00000E+00 1.00000E+00
 -1       106 7.50000E-01 0.00000E+00 1.00000E+00
 -1       107 5.00000E-01 0.00000E+00 1.50000E+00
 -1       108 2.50000E-01 0.00000E+00 2.00000E+00
 -1       109 5.00000E-01 0.00000E+00 2.00000E+00
 -1       110 7.50000E-01 0.00000E+00 2.00000E+00
 -1       112 2.50000E-01 0.00000E+00 3.00000E+00
 -1       113 5.00000E-01 0.00000E+00 3.00000E+00
 -1       114 7.50000E-01 0.00000E+00 3.00000E+00
 -1       115 5.00000E-01 0.00000E+00 3.50000E+00
 -1       116 2.50000E-01 0.00000E+00 4.00000E+00
 -1       117 5.00000E-01 0.00000E+00 4.00000E+00
 -1       118 7.50000E-01 0.00000E+00 4.00000E+00
 -1       119 5.00000E-01 0.00000E+00 4.50000E+00
 -1       120 2.50000E-01 0.00000E+00 5.00000E+00
 -1       121 5.00000E-01 0.00000E+00 5.00000E+00
 -1       122 7.50000E-01 0.00000E+00 5.00000E+00
 -1       123 5.00000E-01 0.00000E+00 5.50000E+00
 -1       124 2.50000E-01 0.00000E+00 6.00000E+00
 -1       125 5.00000E-01 0.00000E+00 6.00000E+00
 -1       126 7.50000E-01 0.00000E+00 6.00000E+00
 -1       127 5.00000E-01 0.00000E+00 6.50000E+00
 -1       128 2.50000E-01 0.00000E+00 7.00000E+00
 -1       129 5.00000E-01 0.00000E+00 7.00000E+00
 -1       130 7.50000E-01 0.00000E+00 7.00000E+00
 -1       131 5.00000E-01 0.00000E+00 7.50000E+00
 -1       132 1.00000E+00 5.00000E-01 5.00000E-01
 -1       133 1.00000E+00 2.50000E-01 1.00000E+00
 -1       134 1.00000E+00 5.00000E-01 1.00000E+00
 -1       135 1.00000E+00 7.50000E-01 1.00000E+00
 -1       136 1.00000E+00 5.00000E-01 1.50000E+00
 -1       137 1.00000E+00 2.50000E-01 2.00000E+00
 -1       138 1.00000E+00 5.00000E-01 2.00000E+00
 -1       139 1.00000E+00 7.50000E-01 2.00000E+00
 -1       141 1.00000E+00 2.50000E-01 3.00000E+00
 -1       142 1.00000E+00 5.00000E-01 3.00000E+00
 -1       143 1.00000E+00 7.50000E-01 3.00000E+00
 -1       144 1.00000E+00 5.00000E-01 3.50000E+00
 -1       145 1.00000E+00 2.50000E-01 4.00000E+00
 -1       146 1.00000E+00 5.00000E-01 4.00000E+00
 -1       147 1.00000E+00 7.50000E-01 4.00000E+00
 -1       148 1.00000E+00 5.00000E-01 4.50000E+00
 -1       149 1.00000E+00 2.50000E-01 5.00000E+00
 -1       150 1.00000E+00 5.00000E-01 5.00000E+00
 -1       151 1.00000E+00 7.50000E-01 5.00000E+00
 -1       152 1.00000E+00 5.00000E-01 5.50000E+00
 -1       153 1.00000E+00 2.50000E-01 6.00000E+00
 -1       154 1.00000E+00 5.00000E-01 6.00000E+00
 -1       155 1.00000E+00 7.50000E-01 6.00000E+00
 -1       156 1.00000E+00 5.00000E-01 6.50000E+00
 -1       157 1.00000E+00 2.50000E-01 7.00000E+00
 -1       158 1.00000E+00 5.00000E-01 7.00000E+00
 -1       159 1.00000E+00 7.50000E-01 7.00000E+00
 -1       160 1.00000E+00 5.00000E-01 7.50000E+00
 -1       161 5.00000E-01 1.00000E+00 5.00000E-01
 -1       162 7.50000E-01 1.00000E+00 1.00000E+00
 -1       163 5.00000E-01 1.00000E+00 1.00000E+00
 -1       164 2.50000E-01 1.00000E+00 1.00000E+00
 -1       165 5.00000E-01 1.00000E+00 1.50000E+00
 -1       166 7.50000E-01 1.00000E+00 2.00000E+00
 -1       167 5.00000E-01 1.00000E+00 2.00000E+00
 -1       168 2.50000E-01 1.00000E+00 2.00000E+00
 -1       170 7.50000E-01 1.00000E+00 3.00000E+00
 -1       171 5.00000E-01 1.00000E+00 3.00000E+00
 -1       172 2.50000E-01 1.00000E+00 3.00000E+00
 -1       173 5.00000E-01 1.00000E+00 3.50000E+00
 -1       174 7.50000E-01 1.00000E+00 4.00000E+00
 -1       175 5.00000E-01 1.00000E+00 4.00000E+00
 -1       176 2.50000E-01 1.00000E+00 4.00000E+00
 -1       177 5.00000E-01 1.00000E+00 4.50000E+00
 -1       178 7.50000E-01 1.00000E+00 5.00000E+00
 -1       179 5.00000E-01 1.00000E+00 5.00000E+00
 -1       180 2.50000E-01 1.00000E+00 5.00000E+00
 -1       181 5.00000E-01 1.00000E+00 5.50000E+00
 -1       182 7.50000E-01 1.00000E+00 6.00000E+00
 -1       183 5.00000E-01 1.00000E+00 6.00000E+00
 -1       184 2.50000E-01 1.00000E+00 6.00000E+00
 -1       185 5.00000E-01 1.00000E+00 6.50000E+00
 -1       186 7.50000E-01 1.00000E+00 7.00000E+00
 -1       187 5.00000E-01 1.00000E+00 7.00000E+00
 -1       188 2.50000E-01 1.00000E+00 7.00000E+00
 -1       189 5.00000E-01 1.00000E+00 7.50000E+00
 -1       190 0.00000E+00 5.00000E-01 5.00000E-01
 -1       191 0.00000E+00 7.50000E-01 1.00000E+00
 -1       192 0.00000E+00 5.00000E-01 1.00000E+00
 -1       193 0.00000E+00 2.50000E-01 1.00000E+00
 -1       194 0.00000E+00 5.00000E-01 1.50000E+00
 -1       195 0.00000E+00 7.50000E-01 2.00000E+00
 -1       196 0.00000E+00 5.00000E-01 2.00000E+00
 -1       197 0.00000E+00 2.50000E-01 2.00000E+00
 -1       199 0.00000E+00 7.50000E-01 3.00000E+00
 -1       200 0.00000E+00 5.00000E-01 3.00000E+00
 -1       201 0.00000E+00 2.50000E-01 3.00000E+00
 -1       202 0.00000E+00 5.00000E-01 3.50000E+00
 -1       203 0.00000E+00 7.50000E-01 4.00000E+00
 -1       204 0.00000E+00 5.00000E-01 4.00000E+00
 -1       205 0.00000E+00 2.50000E-01 4.00000E+00
 -1       206 0.00000E+00 5.00000E-01 4.50000E+00
 -1       207 0.00000E+00 7.50000E-01 5.00000E+00
 -1       208 0.00000E+00 5.00000E-01 5.00000E+00
 -1       209 0.00000E+00 2.50000E-01 5.00000E+00
 -1       210 0.00000E+00 5.00000E-01 5.50000E+00
 -1       211 0.00000E+00 7.50000E-01 6.00000E+00
 -1       212 0.00000E+00 5.00000E-01 6.00000E+00
 -1       213 0.00000E+00 2.50000E-01 6.00000E+00
 -1       214 0.00000E+00 5.00000E-01 6.50000E+00
 -1       215 0.00000E+00 7.50000E-01 7.00000E+00
 -1       216 0.00000E+00 5.00000E-01 7.00000E+00
 -1       217 0.00000E+00 2.50000E-01 7.00000E+00
 -1       218 0.00000E+00 5.00000E-01 7.50000E+00
 -1       219 5.00000E-01 5.00000E-01 5.00000E-01
 -1       220 5.00000E-01 2.50000E-01 1.00000E+00
 -1       221 2.50000E-01 5.00000E-01 1.00000E+00
 -1       222 5.00000E-01 5.00000E-01 1.00000E+00
 -1       223 7.50000E-01 5.00000E-01 1.00000E+00
 -1       224 5.00000E-01 7.50000E-01 1.00000E+00
 -1       225 5.00000E-01 5.00000E-01 1.50000E+00
 -1       226 5.00000E-01 2.50000E-01 2.00000E+00
 -1       227 2.50000E-01 5.00000E-01 2.00000E+00
 -1       228 5.00000E-01 5.00000E-01 2.00000E+00
 -1       229 7.50000E-01 5.00000E-01 2.00000E+00
 -1       230 5.00000E-01 7.50000E-01 2.00000E+00
 -1       232 5.00000E-01 2.50000E-01 3.00000E+00
 -1       233 2.50000E-01 5.00000E-01 3.00000E+00
 -1       234 5.00000E-01 5.00000E-01 3.00000E+00
 -1       235 7.50000E-01 5.00000E-01 3.00000E+00
 -1       236 5.00000E-01 7.50000E-01 3.00000E+00
 -1       237 5.00000E-01 5.00000E-01 3.50000E+00
 -1       238 5.00000E-01 2.50000E-01 4.00000E+00
 -1       239 2.50000E-01 5.00000E-01 4.00000E+00
 -1       240 5.00000E-01 5.00000E-01 4.00000E+00
 -1       241 7.50000E-01 5.00000E-01 4.00000E+00
 -1       242 5.00000E-01 7.50000E-01 4.00000E+00
 -1       243 5.00000E-01 5.00000E-01 4.50000E+00
 -1       244 5.00000E-01 2.50000E-01 5.00000E+00
 -1       245 2.50000E-01 5.00000E-01 5.00000E+00
 -1       246 5.00000E-01 5.00000E-01 5.00000E+00
 -1       247 7.50000E-01 5.00000E-01 5.00000E+00
 -1       248 5.00000E-01 7.50000E-01 5.00000E+00
 -1       249 5.00000E-01 5.00000E-01 5.50000E+00
 -1       250 5.00000E-01 2.50000E-01 6.00000E+00
 -1       251 2.50000E-01 5.00000E-01 6.00000E+00
 -1       252 5.00000E-01 5.00000E-01 6.00000E+00
 -1       253 7.50000E-01 5.00000E-01 6.00000E+00
 -1       254 5.00000E-01 7.50000E-01 6.00000E+00
 -1       255 5.00000E-01 5.00000E-01 6.50000E+00
 -1       256 5.00000E-01 2.50000E-01 7.00000E+00
 -1       257 2.50000E-01 5.00000E-01 7.00000E+00
 -1       258 5.00000E-01 5.00000E-01 7.00000E+00
 -1       259 7.50000E-01 5.00000E-01 7.00000E+00
 -1       260 5.00000E-01 7.50000E-01 7.00000E+00
 -1       261 5.00000E-01 5.00000E-01 7.50000E+00
 -3
    3C                            28                                     1
 -1         1    4    0    1
 -2         1        10        95        19        61       105       222       192         9        93
 -2        94        20        62       103       219       190       104       220       221       193
 -1         2    4    0    1
 -2        10         2        13        95       105        34       134       222        11        12
 -2        96        93       103        33       132       219       106       133       223       220
 -1         3    4    0    1
 -2        19        95        16         4       192       222       163        79        94        97
 -2        17        18       190       219       161        78       221       224       164       191
 -1         4    4    0    1
 -2        95        13         3        16       222       134        64       163        96        14
 -2        15        97       219       132        63       161       223       135       162       224
 -1         5    4    0    1
 -2        61       105       222       192        59       109       228       196       104       220
 -2       221       193        60       107       225       194       108       226       227       197
 -1         6    4    0    1
 -2       105        34       134       222       109        36       138       228       106       133
 -2       223       220       107        35       136       225       110       137       229       226
 -1         7    4    0    1
 -2       192       222       163        79       196       228       167        81       221       224
 -2       164       191       194       225       165        80       227       230       168       195
 -1         8    4    0    1
 -2       222       134        64       163       228       138        66       167       223       135
 -2       162       224       225       136        65       165       229       139       166       230
 -1        13    4    0    1
 -2        57       113       234       200        55       117       240       204       112       232
 -2       233       201        56       115       237       202       116       238       239       205
 -1        14    4    0    1
 -2       113        38       142       234       117        40       146       240       114       141
 -2       235       232       115        39       144       237       118       145       241       238
 -1        15    4    0    1
 -2       200       234       171        83       204       240       175        85       233       236
 -2       172       199       202       237       173        84       239       242       176       203
 -1        16    4    0    1
 -2       234       142        68       171       240       146        70       175       235       143
 -2       170       236       237       144        69       173       241       147       174       242
 -1        17    4    0    1
 -2        55       117       240       204        53       121       246       208       116       238
 -2       239       205        54       119       243       206       120       244       245       209
 -1        18    4    0    1
 -2       117        40       146       240       121        42       150       246       118       145
 -2       241       238       119        41       148       243       122       149       247       244
 -1        19    4    0    1
 -2       204       240       175        85       208       246       179        87       239       242
 -2       176       203       206       243       177        86       245       248       180       207
 -1        20    4    0    1
 -2       240       146        70       175       246       150        72       179       241       147
 -2       174       242       243       148        71       177       247       151       178       248
 -1        21    4    0    1
 -2        53       121       246       208        51       125       252       212       120       244
 -2       245       209        52       123       249       210       124       250       251       213
 -1        22    4    0    1
 -2       121        42       150       246       125        44       154       252       122       149
 -2       247       244       123        43       152       249       126       153       253       250
 -1        23    4    0    1
 -2       208       246       179        87       212       252       183        89       245       248
 -2       180       207       210       249       181        88       251       254       184       211
 -1        24    4    0    1
 -2       246       150        72       179       252       154        74       183       247       151
 -2       178       248       249       152        73       181       253       155       182       254
 -1        25    4    0    1
 -2        51       125       252       212        49       129       258       216       124       250
 -2       251       213        50       127       255       214       128       256       257       217
 -1        26    4    0    1
 -2       125        44       154       252       129        46       158       258       126       153
 -2       253       250       127        45       156       255       130       157       259       256
 -1        27    4    0    1
 -2       212       252       183        89       216       258       187        91       251       254
 -2       184       211       214       255       185        90       257       260       188       215
 -1        28    4    0    1
 -2       252       154        74       183       258       158        76       187       253       155
 -2       182       254       255       156        75       185       259       159       186       260
 -1        29    4    0    1
 -2        49       129       258       216         5        22       100        31       128       256
 -2       257       217        48       131       261       218        21        98        99        32
 -1        30    4    0    1
 -2       129        46       158       258        22         6        25       100       130       157
 -2       259       256       131        47       160       261        23        24       101        98
 -1        31    4    0    1
 -2       216       258       187        91        31       100        28         8       257       260
 -2       188       215       218       261       189        92        99       102        29        30
 -1        32    4    0    1
 -2       258       158        76       187       100        25         7        28       259       159
 -2       186       260       261       160        77       189       101        26        27       102
 -3
    1PSTEP                         1          17           1          
  100CL  101 1.000000000         252                     0    1           1
 -4  DISP        4    1
 -5  D1          1    2    1    0
 -5  D2          1    2    2    0
 -5  D3          1    2    3    0
 -5  ALL         1    2    0    0    1ALL
 -1         1 0.00000E+00 0.00000E+00 0.00000E+00
 -1         2-5.69215E-02 0.00000E+00 0.00000E+00
 -1         3-5.69215E-02-5.69215E-02 0.00000E+00
 -1         4 1.29016E-16-5.69215E-02 0.00000E+00
 -1         5 0.00000E+00 0.00000E+00 1.00000E+00
 -1         6-5.69215E-02 0.00000E+00 1.00000E+00
 -1         7-5.69215E-02-5.69215E-02 1.00000E+00
 -1         8-1.92766E-18-5.69215E-02 1.00000E+00
 -1         9-1.42304E-02 3.83514E-16 0.00000E+00
 -1        10-2.84608E-02 9.93922E-16 0.00000E+00
 -1        11-4.26912E-02 3.11143E-16 0.00000E+00
 -1        12-5.69215E-02-1.42304E-02 0.00000E+00
 -1        13-5.69215E-02-2.84608E-02 0.00000E+00
 -1        14-5.69215E-02-4.26912E-02 0.00000E+00
 -1        15-4.26912E-02-5.69215E-02 0.00000E+00
 -1        16-2.84608E-02-5.69215E-02 0.00000E+00
 -1        17-1.42304E-02-5.69215E-02 0.00000E+00
 -1        18 4.97259E-16-4.26912E-02 0.00000E+00
 -1        19 1.27375E-15-2.84608E-02 0.00000E+00
 -1        20 5.63736E-16-1.42304E-02 0.00000E+00
 -1        21-1.42304E-02-5.04568E-16 1.00000E+00
 -1        22-2.84608E-02-1.31254E-15 1.00000E+00
 -1        23-4.26912E-02-4.61616E-16 1.00000E+00
 -1        24-5.69215E-02-1.42304E-02 1.00000E+00
 -1        25-5.69215E-02-2.84608E-02 1.00000E+00
 -1        26-5.69215E-02-4.26912E-02 1.00000E+00
 -1        27-4.26912E-02-5.69215E-02 1.00000E+00
 -1        28-2.84608E-02-5.69215E-02 1.00000E+00
 -1        29-1.42304E-02-5.69215E-02 1.00000E+00
 -1        30-8.59563E-16-4.26912E-02 1.00000E+00
 -1        31-2.05951E-15-2.84608E-02 1.00000E+00
 -1        32-1.03196E-15-1.42304E-02 1.00000E+00
 -1        33-5.69215E-02-3.77037E-15 6.25000E-02
 -1        34-5.69215E-02-8.76940E-15 1.25000E-01
 -1        35-5.69215E-02-5.95218E-15 1.87500E-01
 -1        36-5.69215E-02 5.02432E-16 2.50000E-01
 -1        38-5.69215E-02-2.34408E-15 3.75000E-01
 -1        39-5.69215E-02-4.29557E-15 4.37500E-01
 -1        40-5.69215E-02 1.60478E-17 5.00000E-01
 -1        41-5.69215E-02 4.81079E-15 5.62500E-01
 -1        42-5.69215E-02 3.79157E-15 6.25000E-01
 -1        43-5.69215E-02-6.17241E-16 6.87500E-01
 -1        44-5.69215E-02 4.20408E-16 7.50000E-01
 -1        45-5.69215E-02 6.35301E-15 8.12500E-01
 -1        46-5.69215E-02 9.19501E-15 8.75000E-01
 -1        47-5.69215E-02 3.81933E-15 9.37500E-01
 -1        48 3.03853E-15 4.12353E-15 9.37500E-01
 -1        49 8.61759E-15 9.29676E-15 8.75000E-01
 -1        50 5.49080E-15 5.75252E-15 8.12500E-01
 -1        51-5.35937E-17-1.32785E-15 7.50000E-01
 -1        52-1.07401E-15-1.59041E-15 6.87500E-01
 -1        53 3.10182E-15 3.43846E-15 6.25000E-01
 -1        54 4.16229E-15 4.94835E-15 5.62500E-01
 -1        55-2.42495E-16-2.42861E-16 5.00000E-01
 -1        56-4.70222E-15-4.49412E-15 4.37500E-01
 -1        57-2.80342E-15-2.89240E-15 3.75000E-01
 -1        59 4.27226E-16 4.40398E-16 2.50000E-01
 -1        60-5.91060E-15-5.96762E-15 1.87500E-01
 -1        61-8.68256E-15-8.70569E-15 1.25000E-01
 -1        62-3.44563E-15-3.76960E-15 6.25000E-02
 -1        63-5.69215E-02-5.69215E-02 6.25000E-02
 -1        64-5.69215E-02-5.69215E-02 1.25000E-01
 -1        65-5.69215E-02-5.69215E-02 1.87500E-01
 -1        66-5.69215E-02-5.69215E-02 2.50000E-01
 -1        68-5.69215E-02-5.69215E-02 3.75000E-01
 -1        69-5.69215E-02-5.69215E-02 4.37500E-01
 -1        70-5.69215E-02-5.69215E-02 5.00000E-01
 -1        71-5.69215E-02-5.69215E-02 5.62500E-01
 -1        72-5.69215E-02-5.69215E-02 6.25000E-01
 -1        73-5.69215E-02-5.69215E-02 6.87500E-01
 -1        74-5.69215E-02-5.69215E-02 7.50000E-01
 -1        75-5.69215E-02-5.69215E-02 8.12500E-01
 -1        76-5.69215E-02-5.69215E-02 8.75000E-01
 -1        77-5.69215E-02-5.69215E-02 9.37500E-01
 -1        78-3.69056E-15-5.69215E-02 6.25000E-02
 -1        79-8.86567E-15-5.69215E-02 1.25000E-01
 -1        80-6.10167E-15-5.69215E-02 1.87500E-01
 -1        81 2.52189E-16-5.69215E-02 2.50000E-01
 -1        83-2.72695E-15-5.69215E-02 3.75000E-01
 -1        84-5.00354E-15-5.69215E-02 4.37500E-01
 -1        85-4.94601E-16-5.69215E-02 5.00000E-01
 -1        86 4.14648E-15-5.69215E-02 5.62500E-01
 -1        87 2.86339E-15-5.69215E-02 6.25000E-01
 -1        88-2.26583E-15-5.69215E-02 6.87500E-01
 -1        89-1.32385E-15-5.69215E-02 7.50000E-01
 -1        90 4.97950E-15-5.69215E-02 8.12500E-01
 -1        91 8.62585E-15-5.69215E-02 8.75000E-01
 -1        92 3.42239E-15-5.69215E-02 9.37500E-01
 -1        93-2.84608E-02-1.42304E-02 0.00000E+00
 -1        94-1.42304E-02-2.84608E-02 0.00000E+00
 -1        95-2.84608E-02-2.84608E-02 0.00000E+00
 -1        96-4.26912E-02-2.84608E-02 0.00000E+00
 -1        97-2.84608E-02-4.26912E-02 0.00000E+00
 -1        98-2.84608E-02-1.42304E-02 1.00000E+00
 -1        99-1.42304E-02-2.84608E-02 1.00000E+00
 -1       100-2.84608E-02-2.84608E-02 1.00000E+00
 -1       101-4.26912E-02-2.84608E-02 1.00000E+00
 -1       102-2.84608E-02-4.26912E-02 1.00000E+00
 -1       103-2.84608E-02-3.65783E-15 6.25000E-02
 -1       104-1.42304E-02-8.79100E-15 1.25000E-01
 -1       105-2.84608E-02-9.09126E-15 1.25000E-01
 -1       106-4.26912E-02-8.75759E-15 1.25000E-01
 -1       107-2.84608E-02-6.70147E-15 1.87500E-01
 -1       108-1.42304E-02 6.95395E-16 2.50000E-01
 -1       109-2.84608E-02 1.21675E-15 2.50000E-01
 -1       110-4.26912E-02 8.30706E-16 2.50000E-01
 -1       112-1.42304E-02-2.81857E-15 3.75000E-01
 -1       113-2.84608E-02-2.78831E-15 3.75000E-01
 -1       114-4.26912E-02-2.52269E-15 3.75000E-01
 -1       115-2.84608E-02-5.55481E-15 4.37500E-01
 -1       116-1.42304E-02-2.12582E-16 5.00000E-01
 -1       117-2.84608E-02-1.64406E-16 5.00000E-01
 -1       118-4.26912E-02-8.24687E-17 5.00000E-01
 -1       119-2.84608E-02 5.76175E-15 5.62500E-01
 -1       120-1.42304E-02 3.65095E-15 6.25000E-01
 -1       121-2.84608E-02 4.04839E-15 6.25000E-01
 -1       122-4.26912E-02 3.90938E-15 6.25000E-01
 -1       123-2.84608E-02-1.96871E-15 6.87500E-01
 -1       124-1.42304E-02-1.12273E-15 7.50000E-01
 -1       125-2.84608E-02-1.37634E-15 7.50000E-01
 -1       126-4.26912E-02-4.74440E-16 7.50000E-01
 -1       127-2.84608E-02 6.82886E-15 8.12500E-01
 -1       128-1.42304E-02 8.86506E-15 8.75000E-01
 -1       129-2.84608E-02 9.20071E-15 8.75000E-01
 -1       130-4.26912E-02 9.14801E-15 8.75000E-01
 -1       131-2.84608E-02 3.87708E-15 9.37500E-01
 -1       132-5.69215E-02-2.84608E-02 6.25000E-02
 -1       133-5.69215E-02-1.42304E-02 1.25000E-01
 -1       134-5.69215E-02-2.84608E-02 1.25000E-01
 -1       135-5.69215E-02-4.26912E-02 1.25000E-01
 -1       136-5.69215E-02-2.84608E-02 1.87500E-01
 -1       137-5.69215E-02-1.42304E-02 2.50000E-01
 -1       138-5.69215E-02-2.84608E-02 2.50000E-01
 -1       139-5.69215E-02-4.26912E-02 2.50000E-01
 -1       141-5.69215E-02-1.42304E-02 3.75000E-01
 -1       142-5.69215E-02-2.84608E-02 3.75000E-01
 -1       143-5.69215E-02-4.26912E-02 3.75000E-01
 -1       144-5.69215E-02-2.84608E-02 4.37500E-01
 -1       145-5.69215E-02-1.42304E-02 5.00000E-01
 -1       146-5.69215E-02-2.84608E-02 5.00000E-01
 -1       147-5.69215E-02-4.26912E-02 5.00000E-01
 -1       148-5.69215E-02-2.84608E-02 5.62500E-01
 -1       149-5.69215E-02-1.42304E-02 6.25000E-01
 -1       150-5.69215E-02-2.84608E-02 6.25000E-01
 -1       151-5.69215E-02-4.26912E-02 6.25000E-01
 -1       152-5.69215E-02-2.84608E-02 6.87500E-01
 -1       153-5.69215E-02-1.42304E-02 7.50000E-01
 -1       154-5.69215E-02-2.84608E-02 7.50000E-01
 -1       155-5.69215E-02-4.26912E-02 7.50000E-01
 -1       156-5.69215E-02-2.84608E-02 8.12500E-01
 -1       157-5.69215E-02-1.42304E-02 8.75000E-01
 -1       158-5.69215E-02-2.84608E-02 8.75000E-01
 -1       159-5.69215E-02-4.26912E-02 8.75000E-01
 -1       160-5.69215E-02-2.84608E-02 9.37500E-01
 -1       161-2.84608E-02-5.69215E-02 6.25000E-02
 -1       162-4.26912E-02-5.69215E-02 1.25000E-01
 -1       163-2.84608E-02-5.69215E-02 1.25000E-01
 -1       164-1.42304E-02-5.69215E-02 1.25000E-01
 -1       165-2.84608E-02-5.69215E-02 1.87500E-01
 -1       166-4.26912E-02-5.69215E-02 2.50000E-01
 -1       167-2.84608E-02-5.69215E-02 2.50000E-01
 -1       168-1.42304E-02-5.69215E-02 2.50000E-01
 -1       170-4.26912E-02-5.69215E-02 3.75000E-01
 -1       171-2.84608E-02-5.69215E-02 3.75000E-01
 -1       172-1.42304E-02-5.69215E-02 3.75000E-01
 -1       173-2.84608E-02-5.69215E-02 4.37500E-01
 -1       174-4.26912E-02-5.69215E-02 5.00000E-01
 -1       175-2.84608E-02-5.69215E-02 5.00000E-01
 -1       176-1.42304E-02-5.69215E-02 5.00000E-01
 -1       177-2.84608E-02-5.69215E-02 5.62500E-01
 -1       178-4.26912E-02-5.69215E-02 6.25000E-01
 -1       179-2.84608E-02-5.69215E-02 6.25000E-01
 -1       180-1.42304E-02-5.69215E-02 6.25000E-01
 -1       181-2.84608E-02-5.69215E-02 6.87500E-01
 -1       182-4.26912E-02-5.69215E-02 7.50000E-01
 -1       183-2.84608E-02-5.69215E-02 7.50000E-01
 -1       184-1.42304E-02-5.69215E-02 7.50000E-01
 -1       185-2.84608E-02-5.69215E-02 8.12500E-01
 -1       186-4.26912E-02-5.69215E-02 8.75000E-01
 -1       187-2.84608E-02-5.69215E-02 8.75000E-01
 -1       188-1.42304E-02-5.69215E-02 8.75000E-01
 -1       189-2.84608E-02-5.69215E-02 9.37500E-01
 -1       190-3.55595E-15-2.84608E-02 6.25000E-02
 -1       191-8.83005E-15-4.26912E-02 1.25000E-01
 -1       192-9.03521E-15-2.84608E-02 1.25000E-01
 -1       193-8.69640E-15-1.42304E-02 1.25000E-01
 -1       194-6.70274E-15-2.84608E-02 1.87500E-01
 -1       195 6.22362E-16-4.26912E-02 2.50000E-01
 -1       196 1.06003E-15-2.84608E-02 2.50000E-01