    1C
    1UUSER                                                              
    1UDATE              19.july.2022                                    
    1UTIME              21:27:05                                        
    1UHOST                                                              
    1UPGM               CalculiX                                        
    1UVERSION           Version DEVELOPMENT                             
    1UCOMPILETIME       Tue Jul 19 21:11:38 CEST 2022                    
    1UDIR                                                               
    1UDBN                                                               
    1UMAT    1EL                                                        
    1UMAT    2SPRING                                                    
    2C                            10                                     1
 -1         1 0.00000E+00 0.00000E+00 0.00000E+00
 -1         2 1.00000E+00 0.00000E+00 0.00000E+00
 -1         3 1.00000E+00-1.00000E-01 1.00000E-01
 -1         4 1.20000E+00-1.00000E-01 1.00000E-01
 -1         5 1.20000E+00-1.00000E-01-1.00000E-01
 -1         6 1.00000E+00-1.00000E-01-1.00000E-01
 -1         7 1.00000E+00 1.00000E-01 1.00000E-01
 -1         8 1.20000E+00 1.00000E-01 1.00000E-01
 -1         9 1.20000E+00 1.00000E-01-1.00000E-01
 -1        10 1.00000E+00 1.00000E-01-1.00000E-01
 -3
    3C                             2                                     1
 -1         1   11    0    2
 -2         1         2
 -1         2    1    0    1
 -2         3         4         5         6         7         8         9        10
 -3
    1PSTEP                         1          10           1          
  100CL  101 1.00000E-06          10                     1    1           1
 -4  ENER        1    1
 -5  ENER        1    1    0    0
 -1         1 0.00000E+00
 -1         2 0.00000E+00
 -1         3-1.82231E-29
 -1         4 8.48703E-29
 -1         5-1.02162E-29
 -1         6 1.52635E-30
 -1         7 1.16741E-29
 -1         8-3.21515E-29
 -1         9 4.15557E-29
 -1        10-1.19549E-29
 -3
    1PSTEP                         2          20           1          
  100CL  102 2.00000E-06          10                     1    2           1
 -4  ENER        1    1
 -5  ENER        1    1    0    0
 -1         1 0.00000E+00
 -1         2 0.00000E+00
 -1         3-1.85881E-28
 -1         4 6.35936E-28
 -1         5 5.91223E-29
 -1         6 7.88565E-28
 -1         7-4.44761E-30
 -1         8-4.11902E-29
 -1         9-3.09230E-28
 -1        10 8.87264E-28
 -3
    1PSTEP                         3          30           1          
  100CL  103 3.00000E-06          10                     1    3           1
 -4  ENER        1    1
 -5  ENER        1    1    0    0
 -1         1 0.00000E+00
 -1         2 0.00000E+00
 -1         3 9.49389E-28
 -1         4 1.91127E-28
 -1         5 4.53849E-28
 -1         6 4.10542E-28
 -1         7-5.16085E-28
 -1         8 8.72158E-29
 -1         9-4.51631E-28
 -1        10 1.05329E-27
 -3
    1PSTEP                         4          40           1          
  100CL  104 4.00000E-06          10                     1    4           1
 -4  ENER        1    1
 -5  ENER        1    1    0    0
 -1         1 0.00000E+00
 -1         2 0.00000E+00
 -1         3 2.43877E-28
 -1         4-4.35925E-27
 -1         5 8.61344E-27
 -1         6 1.14066E-27
 -1         7-2.70250E-27
 -1         8 6.63693E-27
 -1         9 3.80042E-27
 -1        10 2.43028E-27
 -3
    1PSTEP                         5          50           1          
  100CL  105 5.00000E-06          10                     1    5           1
 -4  ENER        1    1
 -5  ENER        1    1    0    0
 -1         1 0.00000E+00
 -1         2 0.00000E+00
 -1         3-1.66520E-27
 -1         4 9.71084E-27
 -1         5 1.27992E-26
 -1         6-2.06293E-28
 -1         7-5.10566E-28
 -1         8 5.77496E-27
 -1         9-6.29931E-27
 -1        10 4.53773E-27
 -3
    1PSTEP                         6          60           1          
  100CL  106 6.00000E-06          10                     1    6           1
 -4  ENER        1    1
 -5  ENER        1    1    0    0
 -1         1 0.00000E+00
 -1         2 0.00000E+00
 -1         3-2.32466E-27
 -1         4-7.46303E-28
 -1         5 6.61974E-28
 -1         6 4.87177E-27
 -1         7 4.11736E-27
 -1         8 3.47752E-27
 -1         9 1.13073E-27
 -1        10-2.82760E-27
 -3
    1PSTEP                         7          70           1          
  100CL  107 7.00000E-06          10                     1    7           1
 -4  ENER        1    1
 -5  ENER        1    1    0    0
 -1         1 0.00000E+00
 -1         2 0.00000E+00
 -1         3 3.07835E-28
 -1         4-6.38992E-28
 -1         5 3.83579E-27
 -1         6-7.91129E-28
 -1         7-7.71405E-28
 -1         8 3.76218E-27
 -1         9-1.44341E-27
 -1        10 2.50078E-28
 -3
    1PSTEP                         8          80           1          
  100CL  108 8.00000E-06          10                     1    8           1
 -4  ENER        1    1
 -5  ENER        1    1    0    0
 -1         1 0.00000E+00
 -1         2 0.00000E+00
 -1         3 1.16275E-26
 -1         4 3.14556E-27
 -1         5-2.01476E-30
 -1         6-3.34109E-27
 -1         7-7.29302E-28
 -1         8 2.69695E-26
 -1         9-5.26555E-27
 -1        10-3.30248E-28
 -3
    1PSTEP                         9          90           1          
  100CL  109 9.00000E-06          10                     1    9           1
 -4  ENER        1    1
 -5  ENER        1    1    0    0
 -1         1 0.00000E+00
 -1         2 0.00000E+00
 -1         3 7.77104E-27
 -1         4 6.20854E-27
 -1         5-2.96076E-27
 -1         6 5.67798E-28
 -1         7-1.31721E-27
 -1         8 1.22340E-26
 -1         9 8.39076E-27
 -1        10 4.72665E-27
 -3
    1PSTEP                        10         100           1          
  100CL  110 1.00000E-05          10                     1   10           1
 -4  ENER        1    1
 -5  ENER        1    1    0    0
 -1         1 0.00000E+00
 -1         2 0.00000E+00
 -1         3 2.53478E-27
 -1         4-5.14377E-27
 -1         5 2.20623E-26
 -1         6-6.22148E-27
 -1         7 1.04028E-28
 -1         8 2.53478E-27
 -1         9-6.22148E-27
 -1        10 1.45707E-27
 -3
 9999
