    1C
    1UUSER                                                              
    1UDATE              27.july.2023                                    
    1UTIME              18:53:36                                        
    1UHOST                                                              
    1UPGM               CalculiX                                        
    1UVERSION           Version DEVELOPMENT                             
    1UCOMPILETIME       Tue Jul 25 21:57:43 CEST 2023                    
    1UDIR                                                               
    1UDBN                                                               
    1UMAT    1MATERIAL                                                  
    2C                            48                                     1
 -1        12-2.50000E-02 0.00000E+00 2.50000E-02
 -1        13-2.50000E-02 0.00000E+00-2.50000E-02
 -1        14 2.50000E-02 0.00000E+00-2.50000E-02
 -1        15 2.50000E-02 0.00000E+00 2.50000E-02
 -1        20-2.50000E-02 6.25000E-01 2.50000E-02
 -1        21-2.50000E-02 6.25000E-01-2.50000E-02
 -1        22 2.50000E-02 6.25000E-01-2.50000E-02
 -1        23 2.50000E-02 6.25000E-01 2.50000E-02
 -1        28-2.50000E-02 8.75000E-01 2.50000E-02
 -1        29-2.50000E-02 8.75000E-01-2.50000E-02
 -1        30 2.50000E-02 8.75000E-01-2.50000E-02
 -1        31 2.50000E-02 8.75000E-01 2.50000E-02
 -1        36 0.00000E+00 4.75000E-01-2.50000E-02
 -1        37 0.00000E+00 5.25000E-01-2.50000E-02
 -1        38 0.00000E+00 5.25000E-01 2.50000E-02
 -1        39 0.00000E+00 4.75000E-01 2.50000E-02
 -1        45-2.50000E-02 5.00000E-01 2.50000E-02
 -1        46-2.50000E-02 5.00000E-01-2.50000E-02
 -1        47 2.50000E-02 5.00000E-01-2.50000E-02
 -1        48 2.50000E-02 5.00000E-01 2.50000E-02
 -1        53-2.50000E-02 1.25000E-01 2.50000E-02
 -1        54-2.50000E-02 1.25000E-01-2.50000E-02
 -1        55 2.50000E-02 1.25000E-01-2.50000E-02
 -1        56 2.50000E-02 1.25000E-01 2.50000E-02
 -1        61-2.50000E-02 7.50000E-01 2.50000E-02
 -1        62-2.50000E-02 7.50000E-01-2.50000E-02
 -1        63 2.50000E-02 7.50000E-01-2.50000E-02
 -1        64 2.50000E-02 7.50000E-01 2.50000E-02
 -1        69-2.50000E-02 3.75000E-01 2.50000E-02
 -1        70-2.50000E-02 3.75000E-01-2.50000E-02
 -1        71 2.50000E-02 3.75000E-01-2.50000E-02
 -1        72 2.50000E-02 3.75000E-01 2.50000E-02
 -1        77-2.50000E-02 1.00000E+00 2.50000E-02
 -1        78-2.50000E-02 1.00000E+00-2.50000E-02
 -1        79 2.50000E-02 1.00000E+00-2.50000E-02
 -1        80 2.50000E-02 1.00000E+00 2.50000E-02
 -1        85-2.50000E-02 1.12500E+00 2.50000E-02
 -1        86-2.50000E-02 1.12500E+00-2.50000E-02
 -1        87 2.50000E-02 1.12500E+00-2.50000E-02
 -1        88 2.50000E-02 1.12500E+00 2.50000E-02
 -1        93-2.50000E-02 2.50000E-01 2.50000E-02
 -1        94-2.50000E-02 2.50000E-01-2.50000E-02
 -1        95 2.50000E-02 2.50000E-01-2.50000E-02
 -1        96 2.50000E-02 2.50000E-01 2.50000E-02
 -1       101-5.00000E-01 4.75000E-01-2.50000E-02
 -1       102-5.00000E-01 5.25000E-01-2.50000E-02
 -1       103-5.00000E-01 5.25000E-01 2.50000E-02
 -1       104-5.00000E-01 4.75000E-01 2.50000E-02
 -3
    3C                            10                                     1
 -1         1    1    0    1
 -2        53        12        13        54        56        15        14        55
 -1         2    1    0    1
 -2        93        53        54        94        96        56        55        95
 -1         3    1    0    1
 -2        85        77        78        86        88        80        79        87
 -1         4    1    0    1
 -2        77        28        29        78        80        31        30        79
 -1         5    1    0    1
 -2        28        61        62        29        31        64        63        30
 -1         6    1    0    1
 -2        61        20        21        62        64        23        22        63
 -1         7    1    0    1
 -2       101        36        37       102       104        39        38       103
 -1         8    1    0    1
 -2        69        93        94        70        72        96        95        71
 -1         9    1    0    1
 -2        20        45        46        21        23        48        47        22
 -1        10    1    0    1
 -2        45        69        70        46        48        72        71        47
 -3
    1PSTEP                         1           1           1          
  100CL  101 1.000000000          48                     0    1           1
 -4  DISP        4    1
 -5  D1          1    2    1    0
 -5  D2          1    2    2    0
 -5  D3          1    2    3    0
 -5  ALL         1    2    0    0    1ALL
 -1        12 6.08642E-19-1.87742E-05 6.17006E-19
 -1        13-6.08123E-19 1.87742E-05 6.03092E-19
 -1        14-6.08487E-19 1.87742E-05-5.99699E-19
 -1        15 6.07969E-19-1.87742E-05-6.20399E-19
 -1        20-3.24424E-18 4.43951E-06 2.36877E-04
 -1        21-5.48454E-18-4.43951E-06 2.36877E-04
 -1        22-5.43314E-18-4.43951E-06 2.36877E-04
 -1        23-3.25658E-18 4.43951E-06 2.36877E-04
 -1        28-1.36555E-17 1.28589E-05 1.46503E-04
 -1        29-1.56183E-17-1.28589E-05 1.46503E-04
 -1        30-1.55931E-17-1.28589E-05 1.46503E-04
 -1        31-1.36943E-17 1.28589E-05 1.46503E-04
 -1        36 1.23832E-05-1.45820E-18 2.47663E-04
 -1        37 1.23832E-05-1.44343E-18 2.47663E-04
 -1        38-1.23832E-05-1.47723E-18 2.47663E-04
 -1        39-1.23832E-05-1.41421E-18 2.47663E-04
 -1        45-6.99649E-19-1.44827E-18 2.47663E-04
 -1        46-6.99649E-19-1.44827E-18 2.47663E-04
 -1        47-6.99649E-19-1.44827E-18 2.47663E-04
 -1        48-6.99649E-19-1.44827E-18 2.47663E-04
 -1        53-1.60428E-18-1.76008E-05 9.12505E-05
 -1        54-2.83278E-18 1.76008E-05 9.12505E-05
 -1        55-2.83088E-18 1.76008E-05 9.12505E-05
 -1        56-1.60402E-18-1.76008E-05 9.12505E-05
 -1        61-1.06254E-17 9.35080E-06 2.02214E-04
 -1        62-1.26809E-17-9.35080E-06 2.02214E-04
 -1        63-1.26818E-17-9.35080E-06 2.02214E-04
 -1        64-1.06279E-17 9.35080E-06 2.02214E-04
 -1        69-1.27001E-18-8.21371E-06 2.26816E-04
 -1        70-2.27344E-18 8.21371E-06 2.26816E-04
 -1        71-2.33273E-18 8.21371E-06 2.26816E-04
 -1        72-1.20617E-18-8.21371E-06 2.26816E-04
 -1        77-9.09273E-18 1.49637E-05 7.67596E-05
 -1        78-1.09565E-17-1.49637E-05 7.67596E-05
 -1        79-1.09784E-17-1.49637E-05 7.67596E-05
 -1        80-9.06163E-18 1.49637E-05 7.67596E-05
 -1        85 9.35866E-19 1.56653E-05 9.33093E-19
 -1        86-9.32534E-19-1.56653E-05 9.41583E-19
 -1        87-9.23742E-19-1.56653E-05-9.54606E-19
 -1        88 9.20411E-19 1.56653E-05-9.20070E-19
 -1        93-2.46652E-18-1.40807E-05 1.70767E-04
 -1        94-3.55796E-18 1.40807E-05 1.70767E-04
 -1        95-3.61641E-18 1.40807E-05 1.70767E-04
 -1        96-2.42929E-18-1.40807E-05 1.70767E-04
 -1       101 1.23832E-05-2.66661E-21-1.72910E-21
 -1       102 1.23832E-05-1.56436E-20-3.24312E-20
 -1       103-1.23832E-05 2.57210E-20 5.07415E-20
 -1       104-1.23832E-05-7.41077E-21-1.65811E-20
 -3
 9999
