
                        S T E P       1


                                INCREMENT     1


 displacements (vx,vy,vz) for set N1 and time  0.1000000E+01

       100 -2.465238E-14  7.978760E-02 -5.786858E-16
