    1C
    1UUSER                                                              
    1UDATE              04.august.2024                                  
    1UTIME              12:26:41                                        
    1UHOST                                                              
    1UPGM               CalculiX                                        
    1UVERSION           Version DEVELOPMENT                             
    1UCOMPILETIME       Wed Jul 31 22:10:06 CEST 2024                    
    1UDIR                                                               
    1UDBN                                                               
    1UMAT    1EL                                                        
    2C                             8                                     1
 -1         1 0.00000E+00 0.00000E+00 0.00000E+00
 -1         2 1.00000E+00 0.00000E+00 0.00000E+00
 -1         3 1.00000E+00 1.00000E+00 0.00000E+00
 -1         4 0.00000E+00 1.00000E+00 0.00000E+00
 -1         5 0.00000E+00 0.00000E+00 1.00000E+00
 -1         6 1.00000E+00 0.00000E+00 1.00000E+00
 -1         7 1.00000E+00 1.00000E+00 1.00000E+00
 -1         8 0.00000E+00 1.00000E+00 1.00000E+00
 -3
    3C                             1                                     1
 -1         1    1    0    1
 -2         1         2         3         4         5         6         7         8
 -3
    1PSTEP                         1        1002           1          
  100CL  101 1.000000000           8                     1    1           1
 -4  DISP        4    1
 -5  D1          1    2    1    0
 -5  D2          1    2    2    0
 -5  D3          1    2    3    0
 -5  ALL         1    2    0    0    1ALL
 -1         1 5.00000E-01 0.00000E+00 0.00000E+00
 -1         2 5.00000E-01 0.00000E+00 0.00000E+00
 -1         3 5.00000E-01 0.00000E+00 0.00000E+00
 -1         4 5.00000E-01 0.00000E+00 0.00000E+00
 -1         5 5.00000E-01 0.00000E+00 0.00000E+00
 -1         6 5.00000E-01 0.00000E+00 0.00000E+00
 -1         7 5.00000E-01 0.00000E+00 0.00000E+00
 -1         8 5.00000E-01 0.00000E+00 0.00000E+00
 -3
    1PSTEP                         2        1002           1          
  100CL  101 1.000000000           8                     1    1           1
 -4  VELO        4    1
 -5  V1          1    2    1    0
 -5  V2          1    2    2    0
 -5  V3          1    2    3    0
 -5  ALL         1    2    0    0    1ALL
 -1         1 1.00000E+00 0.00000E+00 0.00000E+00
 -1         2 1.00000E+00 0.00000E+00 0.00000E+00
 -1         3 1.00000E+00 0.00000E+00 0.00000E+00
 -1         4 1.00000E+00 0.00000E+00 0.00000E+00
 -1         5 1.00000E+00 0.00000E+00 0.00000E+00
 -1         6 1.00000E+00 0.00000E+00 0.00000E+00
 -1         7 1.00000E+00 0.00000E+00 0.00000E+00
 -1         8 1.00000E+00 0.00000E+00 0.00000E+00
 -3
    1PSTEP                         3        1002           1          
  100CL  101 1.000000000           8                     1    1           1
 -4  ENER        1    1
 -5  ENER        1    1    0    0
 -1         1 8.49932E-29
 -1         2 5.61146E-29
 -1         3-2.27784E-29
 -1         4 3.79429E-28
 -1         5 8.49932E-29
 -1         6 5.61146E-29
 -1         7-2.27784E-29
 -1         8 3.79429E-28
 -3
 9999
