    1C
    1UUSER                                                              
    1UDATE              19.july.2022                                    
    1UTIME              21:39:58                                        
    1UHOST                                                              
    1UPGM               CalculiX                                        
    1UVERSION           Version DEVELOPMENT                             
    1UCOMPILETIME       Tue Jul 19 21:11:38 CEST 2022                    
    1UDIR                                                               
    1UDBN                                                               
    1UMAT    1EL                                                        
    2C                             8                                     1
 -1         1 0.00000E+00 0.00000E+00 0.00000E+00
 -1         2 1.00000E+00 0.00000E+00 0.00000E+00
 -1         3 1.00000E+00 1.00000E+00 0.00000E+00
 -1         4 0.00000E+00 1.00000E+00 0.00000E+00
 -1         5 0.00000E+00 0.00000E+00 1.00000E+00
 -1         6 1.00000E+00 0.00000E+00 1.00000E+00
 -1         7 1.00000E+00 1.00000E+00 1.00000E+00
 -1         8 0.00000E+00 1.00000E+00 1.00000E+00
 -3
    3C                             1                                     1
 -1         1    1    0    1
 -2         1         2         3         4         5         6         7         8
 -3
    1PSTEP                         1           1           1          
  100CL  101 1.000000000           8                     1    1           1
 -4  DISP        4    1
 -5  D1          1    2    1    0
 -5  D2          1    2    2    0
 -5  D3          1    2    3    0
 -5  ALL         1    2    0    0    1ALL
 -1         1 5.00000E-01 8.54942E-15 4.27471E-15
 -1         2 5.00000E-01 8.54942E-15 4.27471E-15
 -1         3 5.00000E-01 8.54942E-15 4.27471E-15
 -1         4 5.00000E-01 8.54942E-15 4.27471E-15
 -1         5 5.00000E-01 8.54942E-15 4.27471E-15
 -1         6 5.00000E-01 8.54942E-15 4.27471E-15
 -1         7 5.00000E-01 8.54942E-15 4.27471E-15
 -1         8 5.00000E-01 8.54942E-15 4.27471E-15
 -3
    1PSTEP                         2           1           1          
  100CL  101 1.000000000           8                     1    1           1
 -4  VELO        4    1
 -5  V1          1    2    1    0
 -5  V2          1    2    2    0
 -5  V3          1    2    3    0
 -5  ALL         1    2    0    0    1ALL
 -1         1 1.00000E+00 1.71465E-14 8.57324E-15
 -1         2 1.00000E+00 1.71465E-14 8.57324E-15
 -1         3 1.00000E+00 1.71465E-14 8.57324E-15
 -1         4 1.00000E+00 1.71465E-14 8.57324E-15
 -1         5 1.00000E+00 1.71465E-14 8.57324E-15
 -1         6 1.00000E+00 1.71465E-14 8.57324E-15
 -1         7 1.00000E+00 1.71465E-14 8.57324E-15
 -1         8 1.00000E+00 1.71465E-14 8.57324E-15
 -3
    1PSTEP                         3           1           1          
  100CL  101 1.000000000           8                     1    1           1
 -4  ENER        1    1
 -5  ENER        1    1    0    0
 -1         1-5.57582E-29
 -1         2 2.58365E-28
 -1         3-7.13820E-29
 -1         4 1.55149E-29
 -1         5 1.86685E-30
 -1         6 4.33019E-29
 -1         7 1.59783E-28
 -1         8-4.64247E-29
 -3
    1PSTEP                         4           2           1          
  100CL  102 2.000000000           8                     1    2           1
 -4  DISP        4    1
 -5  D1          1    2    1    0
 -5  D2          1    2    2    0
 -5  D3          1    2    3    0
 -5  ALL         1    2    0    0    1ALL
 -1         1 2.00000E+00 2.56959E-14 1.28479E-14
 -1         2 2.00000E+00 2.56959E-14 1.28479E-14
 -1         3 2.00000E+00 2.56959E-14 1.28479E-14
 -1         4 2.00000E+00 2.56959E-14 1.28479E-14
 -1         5 2.00000E+00 2.56959E-14 1.28479E-14
 -1         6 2.00000E+00 2.56959E-14 1.28479E-14
 -1         7 2.00000E+00 2.56959E-14 1.28479E-14
 -1         8 2.00000E+00 2.56959E-14 1.28479E-14
 -3
    1PSTEP                         5           2           1          
  100CL  102 2.000000000           8                     1    2           1
 -4  VELO        4    1
 -5  V1          1    2    1    0
 -5  V2          1    2    2    0
 -5  V3          1    2    3    0
 -5  ALL         1    2    0    0    1ALL
 -1         1 2.00000E+00 1.71465E-14 8.57324E-15
 -1         2 2.00000E+00 1.71465E-14 8.57324E-15
 -1         3 2.00000E+00 1.71465E-14 8.57324E-15
 -1         4 2.00000E+00 1.71465E-14 8.57324E-15
 -1         5 2.00000E+00 1.71465E-14 8.57324E-15
 -1         6 2.00000E+00 1.71465E-14 8.57324E-15
 -1         7 2.00000E+00 1.71465E-14 8.57324E-15
 -1         8 2.00000E+00 1.71465E-14 8.57324E-15
 -3
    1PSTEP                         6           2           1          
  100CL  102 2.000000000           8                     1    2           1
 -4  ENER        1    1
 -5  ENER        1    1    0    0
 -1         1-3.26645E-28
 -1         2 1.21897E-27
 -1         3 1.71054E-27
 -1         4-4.58359E-28
 -1         5-4.58359E-28
 -1         6 1.71054E-27
 -1         7 1.18216E-27
 -1         8-3.16783E-28
 -3
    1PSTEP                         7           3           1          
  100CL  103 3.000000000           8                     1    3           1
 -4  DISP        4    1
 -5  D1          1    2    1    0
 -5  D2          1    2    2    0
 -5  D3          1    2    3    0
 -5  ALL         1    2    0    0    1ALL
 -1         1 4.50000E+00 4.28424E-14 2.14212E-14
 -1         2 4.50000E+00 4.28424E-14 2.14212E-14
 -1         3 4.50000E+00 4.28424E-14 2.14212E-14
 -1         4 4.50000E+00 4.28424E-14 2.14212E-14
 -1         5 4.50000E+00 4.28424E-14 2.14212E-14
 -1         6 4.50000E+00 4.28424E-14 2.14212E-14
 -1         7 4.50000E+00 4.28424E-14 2.14212E-14
 -1         8 4.50000E+00 4.28424E-14 2.14212E-14
 -3
    1PSTEP                         8           3           1          
  100CL  103 3.000000000           8                     1    3           1
 -4  VELO        4    1
 -5  V1          1    2    1    0
 -5  V2          1    2    2    0
 -5  V3          1    2    3    0
 -5  ALL         1    2    0    0    1ALL
 -1         1 3.00000E+00 1.71465E-14 8.57324E-15
 -1         2 3.00000E+00 1.71465E-14 8.57324E-15
 -1         3 3.00000E+00 1.71465E-14 8.57324E-15
 -1         4 3.00000E+00 1.71465E-14 8.57324E-15
 -1         5 3.00000E+00 1.71465E-14 8.57324E-15
 -1         6 3.00000E+00 1.71465E-14 8.57324E-15
 -1         7 3.00000E+00 1.71465E-14 8.57324E-15
 -1         8 3.00000E+00 1.71465E-14 8.57324E-15
 -3
    1PSTEP                         9           3           1          
  100CL  103 3.000000000           8                     1    3           1
 -4  ENER        1    1
 -5  ENER        1    1    0    0
 -1         1 1.34663E-27
 -1         2 1.01374E-26
 -1         3-3.15771E-28
 -1         4 1.17998E-26
 -1         5-1.17794E-27
 -1         6 1.95594E-26
 -1         7 9.10619E-27
 -1         8 9.27527E-27
 -3
 9999
