    1C
    1UUSER                                                              
    1UDATE              02.december.2023                                
    1UTIME              14:46:38                                        
    1UHOST                                                              
    1UPGM               CalculiX                                        
    1UVERSION           Version DEVELOPMENT                             
    1UCOMPILETIME       Sat Dec  2 14:42:26 CET 2023                    
    1UDIR                                                               
    1UDBN                                                               
    1UMAT    1EL                                                        
    2C                             8                                     1
 -1         1 0.00000E+00 0.00000E+00 0.00000E+00
 -1         2 1.00000E+00 0.00000E+00 0.00000E+00
 -1         3 1.00000E+00 1.00000E+00 0.00000E+00
 -1         4 0.00000E+00 1.00000E+00 0.00000E+00
 -1         5 0.00000E+00 0.00000E+00 1.00000E+00
 -1         6 1.00000E+00 0.00000E+00 1.00000E+00
 -1         7 1.00000E+00 1.00000E+00 1.00000E+00
 -1         8 0.00000E+00 1.00000E+00 1.00000E+00
 -3
    3C                             1                                     1
 -1         1    1    0    1
 -2         1         2         3         4         5         6         7         8
 -3
    1PSTEP                         1        1000           1          
  100CL  101 9.98560E-01           8                     1    1           1
 -4  DISP        4    1
 -5  D1          1    2    1    0
 -5  D2          1    2    2    0
 -5  D3          1    2    3    0
 -5  ALL         1    2    0    0    1ALL
 -1         1 4.98561E-01 0.00000E+00 0.00000E+00
 -1         2 4.98561E-01 0.00000E+00 0.00000E+00
 -1         3 4.98561E-01 0.00000E+00 0.00000E+00
 -1         4 4.98561E-01 0.00000E+00 0.00000E+00
 -1         5 4.98561E-01 0.00000E+00 0.00000E+00
 -1         6 4.98561E-01 0.00000E+00 0.00000E+00
 -1         7 4.98561E-01 0.00000E+00 0.00000E+00
 -1         8 4.98561E-01 0.00000E+00 0.00000E+00
 -3
    1PSTEP                         2        1000           1          
  100CL  101 9.98560E-01           8                     1    1           1
 -4  VELO        4    1
 -5  V1          1    2    1    0
 -5  V2          1    2    2    0
 -5  V3          1    2    3    0
 -5  ALL         1    2    0    0    1ALL
 -1         1 9.98560E-01 0.00000E+00 0.00000E+00
 -1         2 9.98560E-01 0.00000E+00 0.00000E+00
 -1         3 9.98560E-01 0.00000E+00 0.00000E+00
 -1         4 9.98560E-01 0.00000E+00 0.00000E+00
 -1         5 9.98560E-01 0.00000E+00 0.00000E+00
 -1         6 9.98560E-01 0.00000E+00 0.00000E+00
 -1         7 9.98560E-01 0.00000E+00 0.00000E+00
 -1         8 9.98560E-01 0.00000E+00 0.00000E+00
 -3
    1PSTEP                         3        1000           1          
  100CL  101 9.98560E-01           8                     1    1           1
 -4  ENER        1    1
 -5  ENER        1    1    0    0
 -1         1 3.88303E-29
 -1         2 5.61810E-29
 -1         3-9.61008E-29
 -1         4 1.13091E-29
 -1         5 8.49181E-29
 -1         6-1.15824E-28
 -1         7 4.96856E-28
 -1         8-1.47571E-28
 -3
