
                        S T E P       1


                                INCREMENT     1


 displacements (vx,vy,vz) for set N2 and time  0.1000000E-07

        11 -4.963972E-09 -8.987218E-18  9.041950E-08

                                INCREMENT     2


 displacements (vx,vy,vz) for set N2 and time  0.2000000E-07

        11 -3.247065E-08 -1.223105E-16  3.418191E-07

                                INCREMENT     3


 displacements (vx,vy,vz) for set N2 and time  0.3000000E-07

        11 -1.027461E-07 -8.177449E-16  7.032259E-07

                                INCREMENT     4


 displacements (vx,vy,vz) for set N2 and time  0.4000000E-07

        11 -2.121225E-07 -3.585826E-15  1.109289E-06

                                INCREMENT     5


 displacements (vx,vy,vz) for set N2 and time  0.5000000E-07

        11 -3.243351E-07 -1.159028E-14  1.491229E-06

                                INCREMENT     6


 displacements (vx,vy,vz) for set N2 and time  0.6000000E-07

        11 -3.953991E-07 -2.929688E-14  1.779600E-06

                                INCREMENT     7


 displacements (vx,vy,vz) for set N2 and time  0.7000000E-07

        11 -4.073273E-07 -5.946024E-14  1.909054E-06

                                INCREMENT     8


 displacements (vx,vy,vz) for set N2 and time  0.8000000E-07

        11 -3.769920E-07 -9.606624E-14  1.835620E-06

                                INCREMENT     9


 displacements (vx,vy,vz) for set N2 and time  0.9000000E-07

        11 -3.338098E-07 -1.126628E-13  1.561642E-06

                                INCREMENT    10


 displacements (vx,vy,vz) for set N2 and time  0.1000000E-06

        11 -2.925560E-07 -4.619824E-14  1.148755E-06

                                INCREMENT    11


 displacements (vx,vy,vz) for set N2 and time  0.1100000E-06

        11 -2.501318E-07  2.235848E-13  7.026980E-07

                                INCREMENT    12


 displacements (vx,vy,vz) for set N2 and time  0.1200000E-06

        11 -2.064187E-07  8.997540E-13  3.346221E-07

                                INCREMENT    13


 displacements (vx,vy,vz) for set N2 and time  0.1300000E-06

        11 -1.822068E-07  2.299660E-12  1.227568E-07

                                INCREMENT    14


 displacements (vx,vy,vz) for set N2 and time  0.1400000E-06

        11 -2.110638E-07  4.892662E-12  9.716070E-08

                                INCREMENT    15


 displacements (vx,vy,vz) for set N2 and time  0.1500000E-06

        11 -3.113420E-07  9.343529E-12  2.499498E-07

                                INCREMENT    16


 displacements (vx,vy,vz) for set N2 and time  0.1600000E-06

        11 -4.665920E-07  1.656033E-11  5.534881E-07

                                INCREMENT    17


 displacements (vx,vy,vz) for set N2 and time  0.1700000E-06

        11 -6.341762E-07  2.774558E-11  9.678380E-07

                                INCREMENT    18


 displacements (vx,vy,vz) for set N2 and time  0.1800000E-06

        11 -7.732775E-07  4.444969E-11  1.435347E-06

                                INCREMENT    19


 displacements (vx,vy,vz) for set N2 and time  0.1900000E-06

        11 -8.656362E-07  6.862539E-11  1.876542E-06

                                INCREMENT    20


 displacements (vx,vy,vz) for set N2 and time  0.2000000E-06

        11 -9.126203E-07  1.026808E-10  2.201424E-06

                        S T E P       2


                                INCREMENT     1


 displacements (vx,vy,vz) for set N2 and time  0.2100000E-06

        11 -8.965290E-07 -1.162624E-08  2.160266E-06

                                INCREMENT     2


 displacements (vx,vy,vz) for set N2 and time  0.2200000E-06

        11 -7.555040E-07 -7.324509E-08  1.792494E-06

                                INCREMENT     3


 displacements (vx,vy,vz) for set N2 and time  0.2300000E-06

        11 -4.837655E-07 -2.159122E-07  1.611877E-06

                                INCREMENT     4


 displacements (vx,vy,vz) for set N2 and time  0.2400000E-06

        11 -2.699616E-07 -4.020657E-07  1.948212E-06

                                INCREMENT     5


 displacements (vx,vy,vz) for set N2 and time  0.2500000E-06

        11 -4.135946E-07 -5.389013E-07  2.723999E-06

                                INCREMENT     6


 displacements (vx,vy,vz) for set N2 and time  0.2600000E-06

        11 -1.024839E-06 -5.823461E-07  3.655586E-06

                                INCREMENT     7


 displacements (vx,vy,vz) for set N2 and time  0.2700000E-06

        11 -1.847881E-06 -6.120040E-07  4.558127E-06

                                INCREMENT     8


 displacements (vx,vy,vz) for set N2 and time  0.2800000E-06

        11 -2.453008E-06 -7.751041E-07  5.400419E-06

                                INCREMENT     9


 displacements (vx,vy,vz) for set N2 and time  0.2900000E-06

        11 -2.624800E-06 -1.146419E-06  6.153611E-06

                                INCREMENT    10


 displacements (vx,vy,vz) for set N2 and time  0.3000000E-06

        11 -2.541302E-06 -1.652735E-06  6.742341E-06

                                INCREMENT    11


 displacements (vx,vy,vz) for set N2 and time  0.3100000E-06

        11 -2.574529E-06 -2.142593E-06  7.203280E-06

                                INCREMENT    12


 displacements (vx,vy,vz) for set N2 and time  0.3200000E-06

        11 -2.955398E-06 -2.525907E-06  7.796801E-06

                                INCREMENT    13


 displacements (vx,vy,vz) for set N2 and time  0.3300000E-06

        11 -3.648042E-06 -2.843213E-06  8.822001E-06

                                INCREMENT    14


 displacements (vx,vy,vz) for set N2 and time  0.3400000E-06

        11 -4.488025E-06 -3.212360E-06  1.027631E-05

                                INCREMENT    15


 displacements (vx,vy,vz) for set N2 and time  0.3500000E-06

        11 -5.348698E-06 -3.725941E-06  1.176524E-05

                                INCREMENT    16


 displacements (vx,vy,vz) for set N2 and time  0.3600000E-06

        11 -6.152002E-06 -4.397401E-06  1.282791E-05

                                INCREMENT    17


 displacements (vx,vy,vz) for set N2 and time  0.3700000E-06

        11 -6.807055E-06 -5.177102E-06  1.336352E-05

                                INCREMENT    18


 displacements (vx,vy,vz) for set N2 and time  0.3800000E-06

        11 -7.253947E-06 -5.992480E-06  1.370891E-05

                                INCREMENT    19


 displacements (vx,vy,vz) for set N2 and time  0.3900000E-06

        11 -7.594117E-06 -6.777353E-06  1.429995E-05

                                INCREMENT    20


 displacements (vx,vy,vz) for set N2 and time  0.4000000E-06

        11 -8.098867E-06 -7.497422E-06  1.529373E-05
