
                        S T E P       1


                                INCREMENT     1


 displacements (vx,vy,vz) for set N2 and time  0.1000000E-07

        15 -1.220917E-09  5.489870E-09  9.016855E-08

                                INCREMENT     2


 displacements (vx,vy,vz) for set N2 and time  0.2000000E-07

        15 -7.398611E-09  3.538436E-08  3.393733E-07

                                INCREMENT     3


 displacements (vx,vy,vz) for set N2 and time  0.3000000E-07

        15 -2.077970E-08  1.096612E-07  6.917427E-07

                                INCREMENT     4


 displacements (vx,vy,vz) for set N2 and time  0.4000000E-07

        15 -3.561208E-08  2.201971E-07  1.074758E-06

                                INCREMENT     5


 displacements (vx,vy,vz) for set N2 and time  0.5000000E-07

        15 -4.063818E-08  3.253271E-07  1.417125E-06

                                INCREMENT     6


 displacements (vx,vy,vz) for set N2 and time  0.6000000E-07

        15 -3.142880E-08  3.821853E-07  1.661247E-06

                                INCREMENT     7


 displacements (vx,vy,vz) for set N2 and time  0.7000000E-07

        15 -1.844818E-08  3.822146E-07  1.770241E-06

                                INCREMENT     8


 displacements (vx,vy,vz) for set N2 and time  0.8000000E-07

        15 -1.943011E-08  3.511609E-07  1.731980E-06

                                INCREMENT     9


 displacements (vx,vy,vz) for set N2 and time  0.9000000E-07

        15 -4.238519E-08  3.154481E-07  1.560205E-06

                                INCREMENT    10


 displacements (vx,vy,vz) for set N2 and time  0.1000000E-06

        15 -7.775872E-08  2.745896E-07  1.290703E-06

                                INCREMENT    11


 displacements (vx,vy,vz) for set N2 and time  0.1100000E-06

        15 -1.094662E-07  2.107040E-07  9.729254E-07

                                INCREMENT    12


 displacements (vx,vy,vz) for set N2 and time  0.1200000E-06

        15 -1.334904E-07  1.219298E-07  6.612760E-07

                                INCREMENT    13


 displacements (vx,vy,vz) for set N2 and time  0.1300000E-06

        15 -1.633582E-07  3.841715E-08  4.099007E-07

                                INCREMENT    14


 displacements (vx,vy,vz) for set N2 and time  0.1400000E-06

        15 -2.156732E-07  8.639597E-11  2.691959E-07

                                INCREMENT    15


 displacements (vx,vy,vz) for set N2 and time  0.1500000E-06

        15 -2.910048E-07  2.020522E-08  2.781462E-07

                                INCREMENT    16


 displacements (vx,vy,vz) for set N2 and time  0.1600000E-06

        15 -3.707913E-07  7.571069E-08  4.504323E-07

                                INCREMENT    17


 displacements (vx,vy,vz) for set N2 and time  0.1700000E-06

        15 -4.331806E-07  1.346140E-07  7.616398E-07

                                INCREMENT    18


 displacements (vx,vy,vz) for set N2 and time  0.1800000E-06

        15 -4.699832E-07  1.884228E-07  1.149543E-06

                                INCREMENT    19


 displacements (vx,vy,vz) for set N2 and time  0.1900000E-06

        15 -4.868318E-07  2.524342E-07  1.532272E-06

                                INCREMENT    20


 displacements (vx,vy,vz) for set N2 and time  0.2000000E-06

        15 -4.890057E-07  3.347278E-07  1.835319E-06

                        S T E P       2


                                INCREMENT     1


 displacements (vx,vy,vz) for set N2 and time  0.2100000E-06

        15 -4.722606E-07  3.904613E-07  1.919367E-06

                                INCREMENT     2


 displacements (vx,vy,vz) for set N2 and time  0.2200000E-06

        15 -4.323006E-07  3.156380E-07  1.791941E-06

                                INCREMENT     3


 displacements (vx,vy,vz) for set N2 and time  0.2300000E-06

        15 -3.831536E-07  6.106060E-08  1.715279E-06

                                INCREMENT     4


 displacements (vx,vy,vz) for set N2 and time  0.2400000E-06

        15 -3.595257E-07 -2.316646E-07  1.911548E-06

                                INCREMENT     5


 displacements (vx,vy,vz) for set N2 and time  0.2500000E-06

        15 -3.897946E-07 -3.032120E-07  2.439405E-06

                                INCREMENT     6


 displacements (vx,vy,vz) for set N2 and time  0.2600000E-06

        15 -4.608971E-07 -4.112984E-08  3.223207E-06

                                INCREMENT     7


 displacements (vx,vy,vz) for set N2 and time  0.2700000E-06

        15 -5.175712E-07  3.701615E-07  4.133191E-06

                                INCREMENT     8


 displacements (vx,vy,vz) for set N2 and time  0.2800000E-06

        15 -5.083303E-07  6.105589E-07  5.016739E-06

                                INCREMENT     9


 displacements (vx,vy,vz) for set N2 and time  0.2900000E-06

        15 -4.363449E-07  5.258043E-07  5.715645E-06

                                INCREMENT    10


 displacements (vx,vy,vz) for set N2 and time  0.3000000E-06

        15 -3.610252E-07  2.354152E-07  6.151250E-06

                                INCREMENT    11


 displacements (vx,vy,vz) for set N2 and time  0.3100000E-06

        15 -3.459258E-07 -4.315940E-08  6.438757E-06

                                INCREMENT    12


 displacements (vx,vy,vz) for set N2 and time  0.3200000E-06

        15 -4.051887E-07 -2.097997E-07  6.879207E-06

                                INCREMENT    13


 displacements (vx,vy,vz) for set N2 and time  0.3300000E-06

        15 -4.990544E-07 -2.865677E-07  7.763293E-06

                                INCREMENT    14


 displacements (vx,vy,vz) for set N2 and time  0.3400000E-06

        15 -5.738634E-07 -2.685454E-07  9.135707E-06

                                INCREMENT    15


 displacements (vx,vy,vz) for set N2 and time  0.3500000E-06

        15 -6.000896E-07 -7.745667E-08  1.074909E-05

                                INCREMENT    16


 displacements (vx,vy,vz) for set N2 and time  0.3600000E-06

        15 -5.776347E-07  2.920061E-07  1.226092E-05

                                INCREMENT    17


 displacements (vx,vy,vz) for set N2 and time  0.3700000E-06

        15 -5.216727E-07  6.424528E-07  1.348415E-05

                                INCREMENT    18


 displacements (vx,vy,vz) for set N2 and time  0.3800000E-06

        15 -4.561676E-07  6.876991E-07  1.446899E-05

                                INCREMENT    19


 displacements (vx,vy,vz) for set N2 and time  0.3900000E-06

        15 -4.152561E-07  3.323555E-07  1.539352E-05

                                INCREMENT    20


 displacements (vx,vy,vz) for set N2 and time  0.4000000E-06

        15 -4.309473E-07 -1.973420E-07  1.642558E-05
