    1C
    1UUSER                                                              
    1UDATE              23.june.2021                                    
    1UTIME              13:49:29                                        
    1UHOST                                                              
    1UPGM               CalculiX                                        
    1UVERSION           Version DEVELOPMENT                             
    1UCOMPILETIME       Thu Jun 10 09:09:34 CEST 2021                    
    1UDIR                                                               
    1UDBN                                                               
    1UMAT    1MATERIAL-1                                                
    2C                            77                                     1
 -1         1 0.00000E+00 0.00000E+00 0.00000E+00
 -1         2 4.50000E+00 0.00000E+00 0.00000E+00
 -1         3 9.00000E+00 0.00000E+00 0.00000E+00
 -1         4 1.35000E+01 0.00000E+00 0.00000E+00
 -1         5 1.80000E+01 0.00000E+00 0.00000E+00
 -1         6 2.25000E+01 0.00000E+00 0.00000E+00
 -1         7 2.70000E+01 0.00000E+00 0.00000E+00
 -1         8 3.15000E+01 0.00000E+00 0.00000E+00
 -1         9 3.60000E+01 0.00000E+00 0.00000E+00
 -1        10 4.05000E+01 0.00000E+00 0.00000E+00
 -1        11 4.50000E+01 0.00000E+00 0.00000E+00
 -1        12 0.00000E+00 4.16667E+00 0.00000E+00
 -1        13 4.50000E+00 4.16667E+00 0.00000E+00
 -1        14 9.00000E+00 4.16667E+00 0.00000E+00
 -1        15 1.35000E+01 4.16667E+00 0.00000E+00
 -1        16 1.80000E+01 4.16667E+00 0.00000E+00
 -1        17 2.25000E+01 4.16667E+00 0.00000E+00
 -1        18 2.70000E+01 4.16667E+00 0.00000E+00
 -1        19 3.15000E+01 4.16667E+00 0.00000E+00
 -1        20 3.60000E+01 4.16667E+00 0.00000E+00
 -1        21 4.05000E+01 4.16667E+00 0.00000E+00
 -1        22 4.50000E+01 4.16667E+00 0.00000E+00
 -1        23 0.00000E+00 8.33333E+00 0.00000E+00
 -1        24 4.50000E+00 8.33333E+00 0.00000E+00
 -1        25 9.00000E+00 8.33333E+00 0.00000E+00
 -1        26 1.35000E+01 8.33333E+00 0.00000E+00
 -1        27 1.80000E+01 8.33333E+00 0.00000E+00
 -1        28 2.25000E+01 8.33333E+00 0.00000E+00
 -1        29 2.70000E+01 8.33333E+00 0.00000E+00
 -1        30 3.15000E+01 8.33333E+00 0.00000E+00
 -1        31 3.60000E+01 8.33333E+00 0.00000E+00
 -1        32 4.05000E+01 8.33333E+00 0.00000E+00
 -1        33 4.50000E+01 8.33333E+00 0.00000E+00
 -1        34 0.00000E+00 1.25000E+01 0.00000E+00
 -1        35 4.50000E+00 1.25000E+01 0.00000E+00
 -1        36 9.00000E+00 1.25000E+01 0.00000E+00
 -1        37 1.35000E+01 1.25000E+01 0.00000E+00
 -1        38 1.80000E+01 1.25000E+01 0.00000E+00
 -1        39 2.25000E+01 1.25000E+01 0.00000E+00
 -1        40 2.70000E+01 1.25000E+01 0.00000E+00
 -1        41 3.15000E+01 1.25000E+01 0.00000E+00
 -1        42 3.60000E+01 1.25000E+01 0.00000E+00
 -1        43 4.05000E+01 1.25000E+01 0.00000E+00
 -1        44 4.50000E+01 1.25000E+01 0.00000E+00
 -1        45 0.00000E+00 1.66667E+01 0.00000E+00
 -1        46 4.50000E+00 1.66667E+01 0.00000E+00
 -1        47 9.00000E+00 1.66667E+01 0.00000E+00
 -1        48 1.35000E+01 1.66667E+01 0.00000E+00
 -1        49 1.80000E+01 1.66667E+01 0.00000E+00
 -1        50 2.25000E+01 1.66667E+01 0.00000E+00
 -1        51 2.70000E+01 1.66667E+01 0.00000E+00
 -1        52 3.15000E+01 1.66667E+01 0.00000E+00
 -1        53 3.60000E+01 1.66667E+01 0.00000E+00
 -1        54 4.05000E+01 1.66667E+01 0.00000E+00
 -1        55 4.50000E+01 1.66667E+01 0.00000E+00
 -1        56 0.00000E+00 2.08333E+01 0.00000E+00
 -1        57 4.50000E+00 2.08333E+01 0.00000E+00
 -1        58 9.00000E+00 2.08333E+01 0.00000E+00
 -1        59 1.35000E+01 2.08333E+01 0.00000E+00
 -1        60 1.80000E+01 2.08333E+01 0.00000E+00
 -1        61 2.25000E+01 2.08333E+01 0.00000E+00
 -1        62 2.70000E+01 2.08333E+01 0.00000E+00
 -1        63 3.15000E+01 2.08333E+01 0.00000E+00
 -1        64 3.60000E+01 2.08333E+01 0.00000E+00
 -1        65 4.05000E+01 2.08333E+01 0.00000E+00
 -1        66 4.50000E+01 2.08333E+01 0.00000E+00
 -1        67 0.00000E+00 2.50000E+01 0.00000E+00
 -1        68 4.50000E+00 2.50000E+01 0.00000E+00
 -1        69 9.00000E+00 2.50000E+01 0.00000E+00
 -1        70 1.35000E+01 2.50000E+01 0.00000E+00
 -1        71 1.80000E+01 2.50000E+01 0.00000E+00
 -1        72 2.25000E+01 2.50000E+01 0.00000E+00
 -1        73 2.70000E+01 2.50000E+01 0.00000E+00
 -1        74 3.15000E+01 2.50000E+01 0.00000E+00
 -1        75 3.60000E+01 2.50000E+01 0.00000E+00
 -1        76 4.05000E+01 2.50000E+01 0.00000E+00
 -1        77 4.50000E+01 2.50000E+01 0.00000E+00
 -3
    3C                           120                                     1
 -1         1    7    0    1
 -2         1         2        13
 -1         2    7    0    1
 -2        13        12         1
 -1         3    7    0    1
 -2         2         3        14
 -1         4    7    0    1
 -2        14        13         2
 -1         5    7    0    1
 -2         3         4        15
 -1         6    7    0    1
 -2        15        14         3
 -1         7    7    0    1
 -2         4         5        16
 -1         8    7    0    1
 -2        16        15         4
 -1         9    7    0    1
 -2         5         6        17
 -1        10    7    0    1
 -2        17        16         5
 -1        11    7    0    1
 -2         6         7        18
 -1        12    7    0    1
 -2        18        17         6
 -1        13    7    0    1
 -2         7         8        19
 -1        14    7    0    1
 -2        19        18         7
 -1        15    7    0    1
 -2         8         9        20
 -1        16    7    0    1
 -2        20        19         8
 -1        17    7    0    1
 -2         9        10        21
 -1        18    7    0    1
 -2        21        20         9
 -1        19    7    0    1
 -2        10        11        22
 -1        20    7    0    1
 -2        22        21        10
 -1        21    7    0    1
 -2        12        13        24
 -1        22    7    0    1
 -2        24        23        12
 -1        23    7    0    1
 -2        13        14        25
 -1        24    7    0    1
 -2        25        24        13
 -1        25    7    0    1
 -2        14        15        26
 -1        26    7    0    1
 -2        26        25        14
 -1        27    7    0    1
 -2        15        16        27
 -1        28    7    0    1
 -2        27        26        15
 -1        29    7    0    1
 -2        16        17        28
 -1        30    7    0    1
 -2        28        27        16
 -1        31    7    0    1
 -2        17        18        29
 -1        32    7    0    1
 -2        29        28        17
 -1        33    7    0    1
 -2        18        19        30
 -1        34    7    0    1
 -2        30        29        18
 -1        35    7    0    1
 -2        19        20        31
 -1        36    7    0    1
 -2        31        30        19
 -1        37    7    0    1
 -2        20        21        32
 -1        38    7    0    1
 -2        32        31        20
 -1        39    7    0    1
 -2        21        22        33
 -1        40    7    0    1
 -2        33        32        21
 -1        41    7    0    1
 -2        23        24        35
 -1        42    7    0    1
 -2        35        34        23
 -1        43    7    0    1
 -2        24        25        36
 -1        44    7    0    1
 -2        36        35        24
 -1        45    7    0    1
 -2        25        26        37
 -1        46    7    0    1
 -2        37        36        25
 -1        47    7    0    1
 -2        26        27        38
 -1        48    7    0    1
 -2        38        37        26
 -1        49    7    0    1
 -2        27        28        39
 -1        50    7    0    1
 -2        39        38        27
 -1        51    7    0    1
 -2        28        29        40
 -1        52    7    0    1
 -2        40        39        28
 -1        53    7    0    1
 -2        29        30        41
 -1        54    7    0    1
 -2        41        40        29
 -1        55    7    0    1
 -2        30        31        42
 -1        56    7    0    1
 -2        42        41        30
 -1        57    7    0    1
 -2        31        32        43
 -1        58    7    0    1
 -2        43        42        31
 -1        59    7    0    1
 -2        32        33        44
 -1        60    7    0    1
 -2        44        43        32
 -1        61    7    0    1
 -2        34        35        46
 -1        62    7    0    1
 -2        46        45        34
 -1        63    7    0    1
 -2        35        36        47
 -1        64    7    0    1
 -2        47        46        35
 -1        65    7    0    1
 -2        36        37        48
 -1        66    7    0    1
 -2        48        47        36
 -1        67    7    0    1
 -2        37        38        49
 -1        68    7    0    1
 -2        49        48        37
 -1        69    7    0    1
 -2        38        39        50
 -1        70    7    0    1
 -2        50        49        38
 -1        71    7    0    1
 -2        39        40        51
 -1        72    7    0    1
 -2        51        50        39
 -1        73    7    0    1
 -2        40        41        52
 -1        74    7    0    1
 -2        52        51        40
 -1        75    7    0    1
 -2        41        42        53
 -1        76    7    0    1
 -2        53        52        41
 -1        77    7    0    1
 -2        42        43        54
 -1        78    7    0    1
 -2        54        53        42
 -1        79    7    0    1
 -2        43        44        55
 -1        80    7    0    1
 -2        55        54        43
 -1        81    7    0    1
 -2        45        46        57
 -1        82    7    0    1
 -2        57        56        45
 -1        83    7    0    1
 -2        46        47        58
 -1        84    7    0    1
 -2        58        57        46
 -1        85    7    0    1
 -2        47        48        59
 -1        86    7    0    1
 -2        59        58        47
 -1        87    7    0    1
 -2        48        49        60
 -1        88    7    0    1
 -2        60        59        48
 -1        89    7    0    1
 -2        49        50        61
 -1        90    7    0    1
 -2        61        60        49
 -1        91    7    0    1
 -2        50        51        62
 -1        92    7    0    1
 -2        62        61        50
 -1        93    7    0    1
 -2        51        52        63
 -1        94    7    0    1
 -2        63        62        51
 -1        95    7    0    1
 -2        52        53        64
 -1        96    7    0    1
 -2        64        63        52
 -1        97    7    0    1
 -2        53        54        65
 -1        98    7    0    1
 -2        65        64        53
 -1        99    7    0    1
 -2        54        55        66
 -1       100    7    0    1
 -2        66        65        54
 -1       101    7    0    1
 -2        56        57        68
 -1       102    7    0    1
 -2        68        67        56
 -1       103    7    0    1
 -2        57        58        69
 -1       104    7    0    1
 -2        69        68        57
 -1       105    7    0    1
 -2        58        59        70
 -1       106    7    0    1
 -2        70        69        58
 -1       107    7    0    1
 -2        59        60        71
 -1       108    7    0    1
 -2        71        70        59
 -1       109    7    0    1
 -2        60        61        72
 -1       110    7    0    1
 -2        72        71        60
 -1       111    7    0    1
 -2        61        62        73
 -1       112    7    0    1
 -2        73        72        61
 -1       113    7    0    1
 -2        62        63        74
 -1       114    7    0    1
 -2        74        73        62
 -1       115    7    0    1
 -2        63        64        75
 -1       116    7    0    1
 -2        75        74        63
 -1       117    7    0    1
 -2        64        65        76
 -1       118    7    0    1
 -2        76        75        64
 -1       119    7    0    1
 -2        65        66        77
 -1       120    7    0    1
 -2        77        76        65
 -3
    1PSTEP                         1           1           1          
    1PGM                1.000000E+00                                  
    1PGK                6.227196E+00                                  
    1PHID                         -1                                  
    1PSUBC                         0                                  
    1PMODE                         1                                  
  100CL  101 3.97161E-01          77                     2    1MODAL      1
 -4  DISP        7    1
 -5  D1          1    2    1    0
 -5  D2          1    2    2    0
 -5  D3          1    2    3    0
 -5  D4          1    1    0    0
 -5  D5          1    1    0    0
 -5  D6          1    1    0    0
 -5  ALL         1    2    0    0    1ALL
 -1         1 0.00000E+00 0.00000E+00 0.00000E+00 0.00000E+00 0.00000E+00 0.00000E+00
 -1         2-6.61744E-24-1.65436E-24-8.27657E-06-8.50301E-07 3.84598E-06 0.00000E+00
 -1         3-1.32349E-23-1.32349E-23-3.46836E-05-1.38972E-06 7.96515E-06 0.00000E+00
 -1         4-5.29396E-23-1.32349E-23-7.84717E-05-1.53447E-06 1.15045E-05-8.27181E-25
 -1         5-5.29396E-23 0.00000E+00-1.36655E-04-1.44827E-06 1.43302E-05-3.30872E-24
 -1         6 2.64698E-23-5.29396E-23-2.06031E-04-1.24404E-06 1.64621E-05 0.00000E+00
 -1         7 2.64698E-23 0.00000E+00-2.83587E-04-9.96480E-07 1.79598E-05-1.65436E-24
 -1         8 0.00000E+00-5.29396E-23-3.66641E-04-7.57531E-07 1.89054E-05-1.65436E-24
 -1         9-5.29396E-23 0.00000E+00-4.52930E-04-5.64550E-07 1.94032E-05-3.30872E-24
 -1        10-5.29396E-23-1.05879E-22-5.40721E-04-4.43302E-07 1.95849E-05 0.00000E+00
 -1        11 0.00000E+00-2.11758E-22-6.28943E-04-3.84858E-07 1.96051E-05 0.00000E+00
 -1        12 0.00000E+00 0.00000E+00 0.00000E+00 0.00000E+00 0.00000E+00 0.00000E+00
 -1        13-3.30872E-24-2.06795E-25-1.01630E-05-1.70452E-07 4.42224E-06-4.13590E-25
 -1        14 6.61744E-24-6.61744E-24-3.86328E-05-5.71261E-07 8.27086E-06-1.65436E-24
 -1        15-1.32349E-23 0.00000E+00-8.32525E-05-7.81492E-07 1.15771E-05 0.00000E+00
 -1        16 0.00000E+00-2.64698E-23-1.41398E-04-8.26099E-07 1.42610E-05 0.00000E+00
 -1        17 2.64698E-23 5.29396E-23-2.10248E-04-7.65656E-07 1.63221E-05-1.65436E-24
 -1        18-5.29396E-23 0.00000E+00-2.87074E-04-6.55435E-07 1.77991E-05 0.00000E+00
 -1        19-1.05879E-22 0.00000E+00-3.69387E-04-5.36406E-07 1.87594E-05-6.61744E-24
 -1        20-5.29396E-23-1.05879E-22-4.55065E-04-4.37108E-07 1.92962E-05 0.00000E+00
 -1        21-2.64698E-23 0.00000E+00-5.42463E-04-3.74962E-07 1.95282E-05-3.30872E-24
 -1        22-2.64698E-23-2.11758E-22-6.30522E-04-3.53164E-07 1.95983E-05-1.32349E-23
 -1        23 0.00000E+00 0.00000E+00 0.00000E+00 0.00000E+00 0.00000E+00 0.00000E+00
 -1        24-1.65436E-24-4.13590E-25-1.05830E-05-3.98826E-08 4.66074E-06-8.27181E-25
 -1        25 0.00000E+00-6.61744E-24-4.01487E-05-2.11804E-07 8.48273E-06-1.65436E-24
 -1        26-3.30872E-24-1.32349E-23-8.54912E-05-3.24188E-07 1.16778E-05-1.65436E-24
 -1        27 6.61744E-24-5.29396E-23-1.43869E-04-3.70196E-07 1.42662E-05-3.30872E-24
 -1        28-1.32349E-23-5.29396E-23-2.12607E-04-3.62745E-07 1.62713E-05-6.61744E-24
 -1        29-1.32349E-23 0.00000E+00-2.89143E-04-3.26852E-07 1.77262E-05-9.92617E-24
 -1        30-2.64698E-23 0.00000E+00-3.71125E-04-2.83701E-07 1.86894E-05-3.30872E-24
 -1        31-2.64698E-23 1.05879E-22-4.56522E-04-2.48245E-07 1.92457E-05-9.92617E-24
 -1        32 0.00000E+00 0.00000E+00-5.43745E-04-2.29488E-07 1.95053E-05-3.30872E-24
 -1        33 0.00000E+00-1.05879E-22-6.31749E-04-2.27440E-07 1.96000E-05-3.30872E-24
 -1        34 0.00000E+00 0.00000E+00 0.00000E+00 0.00000E+00 0.00000E+00 0.00000E+00
 -1        35 4.96308E-24 8.27181E-25-1.06450E-05 4.01723E-09 4.71113E-06 0.00000E+00
 -1        36 0.00000E+00-6.61744E-24-4.05161E-05 2.95427E-09 8.55639E-06-1.65436E-24
 -1        37 0.00000E+00-1.32349E-23-8.61288E-05-1.26432E-09 1.17138E-05 0.00000E+00
 -1        38 0.00000E+00-5.29396E-23-1.44627E-04-1.28866E-09 1.42747E-05-3.30872E-24
 -1        39 4.13590E-25 0.00000E+00-2.13374E-04-3.28101E-09 1.62629E-05-3.30872E-24
 -1        40-1.65436E-24 0.00000E+00-2.89860E-04-9.51279E-09 1.77117E-05-3.30872E-24
 -1        41 0.00000E+00 0.00000E+00-3.71778E-04-1.98648E-08 1.86769E-05-6.61744E-24
 -1        42-4.13590E-25-1.05879E-22-4.57128E-04-3.36856E-08 1.92405E-05-3.30872E-24
 -1        43 0.00000E+00-2.11758E-22-5.44341E-04-5.03910E-08 1.95095E-05-3.30872E-24
 -1        44 3.30872E-24-1.05879E-22-6.32375E-04-6.75836E-08 1.96114E-05 0.00000E+00
 -1        45 0.00000E+00 0.00000E+00 0.00000E+00 0.00000E+00 0.00000E+00 0.00000E+00
 -1        46 0.00000E+00-3.30872E-24-1.04611E-05 6.25730E-08 4.65534E-06-8.27181E-25
 -1        47 0.00000E+00 0.00000E+00-4.00430E-05 2.06248E-07 8.49127E-06 0.00000E+00
 -1        48 0.00000E+00-1.32349E-23-8.54483E-05 3.20875E-07 1.16745E-05-1.65436E-24
 -1        49 2.64698E-23-5.29396E-23-1.43869E-04 3.68018E-07 1.42668E-05-1.65436E-24
 -1        50 1.32349E-23-5.29396E-23-2.12656E-04 3.55712E-07 1.62792E-05-6.61744E-24
 -1        51 2.64698E-23-1.05879E-22-2.89260E-04 3.07112E-07 1.77420E-05-6.61744E-24
 -1        52 1.32349E-23 0.00000E+00-3.71330E-04 2.43468E-07 1.87122E-05 3.30872E-24
 -1        53 2.64698E-23-1.05879E-22-4.56835E-04 1.80678E-07 1.92742E-05 0.00000E+00
 -1        54 2.64698E-23 0.00000E+00-5.44183E-04 1.29035E-07 1.95384E-05-3.30872E-24
 -1        55 0.00000E+00-2.11758E-22-6.32332E-04 9.17323E-08 1.96350E-05 3.30872E-24
 -1        56 0.00000E+00 0.00000E+00 0.00000E+00 0.00000E+00 0.00000E+00 0.00000E+00
 -1        57 1.32349E-23 0.00000E+00-9.87800E-06 1.70742E-07 4.42453E-06-8.27181E-25
 -1        58 2.64698E-23 0.00000E+00-3.84623E-05 5.46567E-07 8.27291E-06-8.27181E-25
 -1        59-1.32349E-23-1.32349E-23-8.31990E-05 7.73861E-07 1.15726E-05 0.00000E+00
 -1        60-2.64698E-23-5.29396E-23-1.41430E-04 8.23369E-07 1.42652E-05 0.00000E+00
 -1        61 0.00000E+00 0.00000E+00-2.10376E-04 7.57694E-07 1.63399E-05-3.30872E-24
 -1        62 5.29396E-23-1.05879E-22-2.87330E-04 6.34528E-07 1.78310E-05 3.30872E-24
 -1        63 2.64698E-23 0.00000E+00-3.69810E-04 4.95825E-07 1.88045E-05 0.00000E+00
 -1        64 0.00000E+00-1.05879E-22-4.55695E-04 3.70592E-07 1.93528E-05-3.30872E-24
 -1        65 2.64698E-23 1.05879E-22-5.43338E-04 2.76406E-07 1.95939E-05-3.30872E-24
 -1        66 0.00000E+00-2.11758E-22-6.31690E-04 2.17507E-07 1.96725E-05-1.65436E-24
 -1        67 0.00000E+00 0.00000E+00 0.00000E+00 0.00000E+00 0.00000E+00 0.00000E+00
 -1        68 6.61744E-24 0.00000E+00-8.16506E-06 5.93589E-07 3.90183E-06-3.30872E-24
 -1        69 2.64698E-23-1.32349E-23-3.46787E-05 1.31331E-06 7.94708E-06 0.00000E+00
 -1        70 2.64698E-23 0.00000E+00-7.85474E-05 1.51437E-06 1.14892E-05 6.61744E-24
 -1        71 2.64698E-23 0.00000E+00-1.36817E-04 1.43522E-06 1.43331E-05 0.00000E+00
 -1        72 2.64698E-23-5.29396E-23-2.06310E-04 1.22676E-06 1.64852E-05 0.00000E+00
 -1        73 5.29396E-23-1.58819E-22-2.84035E-04 9.68906E-07 1.80028E-05-3.30872E-24
 -1        74 5.29396E-23 0.00000E+00-3.67316E-04 7.13375E-07 1.89670E-05 0.00000E+00
 -1        75 0.00000E+00-1.05879E-22-4.53892E-04 4.97669E-07 1.94811E-05-3.30872E-24
 -1        76-5.29396E-23-1.05879E-22-5.42025E-04 3.48385E-07 1.96748E-05-3.30872E-24
 -1        77 5.29396E-23 1.05879E-22-6.30662E-04 2.74352E-07 1.97211E-05-3.30872E-24
 -3
    1PSTEP                         2           1           1          
    1PGM                1.000000E+00                                  
    1PGK                9.800184E+01                                  
    1PHID                         -1                                  
    1PSUBC                         0                                  
    1PMODE                         2                                  
  100CL  102 1.575568341          77                     2    2MODAL      1
 -4  DISP        7    1
 -5  D1          1    2    1    0
 -5  D2          1    2    2    0
 -5  D3          1    2    3    0
 -5  D4          1    1    0    0
 -5  D5          1    1    0    0
 -5  D6          1    1    0    0
 -5  ALL         1    2    0    0    1ALL
 -1         1 0.00000E+00 0.00000E+00 0.00000E+00 0.00000E+00 0.00000E+00 0.00000E+00
 -1         2-1.05879E-21-2.64698E-22 3.57367E-05-1.95855E-06-1.64283E-05 3.17637E-22
 -1         3-2.54110E-21-1.69407E-21 1.29047E-04-9.96559E-06-2.46394E-05-1.32349E-22
 -1         4-3.81165E-21-2.96462E-21 2.47845E-04-1.99569E-05-2.74922E-05-1.32349E-22
 -1         5-5.08220E-21-4.23516E-21 3.72936E-04-3.02459E-05-2.73531E-05-7.41154E-22
 -1         6-5.08220E-21-5.92923E-21 4.93328E-04-3.99681E-05-2.53907E-05-4.23516E-22
 -1         7-7.62330E-21-1.01644E-20 6.02148E-04-4.86091E-05-2.22365E-05-2.11758E-22
 -1         8-6.77626E-21-1.35525E-20 6.94971E-04-5.58061E-05-1.83420E-05-2.64698E-22
 -1         9-8.47033E-21-1.52466E-20 7.69492E-04-6.12840E-05-1.42125E-05-5.29396E-22
 -1        10-1.01644E-20-1.69407E-20 8.26220E-04-6.48574E-05-1.06285E-05-3.17637E-22
 -1        11-1.01644E-20-2.03288E-20 8.71411E-04-6.69744E-05-9.44276E-06-8.47033E-22
 -1        12 0.00000E+00 0.00000E+00 0.00000E+00 0.00000E+00 0.00000E+00 0.00000E+00
 -1        13-3.17637E-22 1.32349E-23 2.35579E-05-2.89328E-06-1.12057E-05-6.61744E-23
 -1        14-1.05879E-21-1.05879E-21 8.53005E-05-1.07875E-05-1.66488E-05-4.23516E-22
 -1        15-2.11758E-21-2.11758E-21 1.64053E-04-2.02815E-05-1.85180E-05-3.70577E-22
 -1        16-4.65868E-21-4.23516E-21 2.47285E-04-3.02038E-05-1.84813E-05-5.29396E-22
 -1        17-4.23516E-21-6.77626E-21 3.27809E-04-3.96894E-05-1.72275E-05-5.29396E-22
 -1        18-5.92923E-21-1.18585E-20 4.01033E-04-4.81823E-05-1.51778E-05-4.23516E-22
 -1        19-7.62330E-21-1.52466E-20 4.64057E-04-5.53135E-05-1.26580E-05-7.41154E-22
 -1        20-5.08220E-21-1.52466E-20 5.15554E-04-6.08678E-05-1.00556E-05-6.35275E-22
 -1        21-5.08220E-21-1.69407E-20 5.56349E-04-6.48450E-05-7.96725E-06-9.52912E-22
 -1        22-7.62330E-21-2.37169E-20 5.90983E-04-6.76169E-05-7.51988E-06-9.52912E-22
 -1        23 0.00000E+00 0.00000E+00 0.00000E+00 0.00000E+00 0.00000E+00 0.00000E+00
 -1        24-3.17637E-22-7.94093E-23 1.03294E-05-2.71186E-06-5.45708E-06-1.58819E-22
 -1        25-4.76456E-22-1.05879E-21 4.02588E-05-1.05993E-05-8.22853E-06-2.38228E-22
 -1        26-7.41154E-22-2.54110E-21 7.93809E-05-2.02746E-05-9.27036E-06-4.23516E-22
 -1        27-1.69407E-21-4.23516E-21 1.21256E-04-3.03344E-05-9.31574E-06-4.76456E-22
 -1        28-2.11758E-21-7.62330E-21 1.62213E-04-3.99236E-05-8.76267E-06-9.52912E-22
 -1        29-1.69407E-21-6.77626E-21 1.99965E-04-4.85071E-05-7.82688E-06-7.41154E-22
 -1        30-2.11758E-21-1.18585E-20 2.33077E-04-5.57500E-05-6.66959E-06-6.35275E-22
 -1        31-2.54110E-21-1.69407E-20 2.60911E-04-6.15146E-05-5.49524E-06-8.47033E-22
 -1        32-2.96462E-21-1.01644E-20 2.83950E-04-6.59544E-05-4.62044E-06-8.47033E-22
 -1        33-2.96462E-21-2.37169E-20 3.04486E-04-6.95831E-05-4.58013E-06-4.23516E-22
 -1        34 0.00000E+00 0.00000E+00 0.00000E+00 0.00000E+00 0.00000E+00 0.00000E+00
 -1        35 4.23516E-22-1.85288E-22-2.45218E-06-2.66257E-06 1.53449E-07-2.38228E-22
 -1        36 5.82335E-22-1.48231E-21-4.22779E-06-1.05214E-05 1.68244E-07-9.26442E-23
 -1        37 3.70577E-22-2.54110E-21-5.15756E-06-2.02410E-05 8.12573E-08-5.29396E-22
 -1        38 4.23516E-22-4.23516E-21-5.15981E-06-3.03946E-05-6.65242E-08-4.76456E-22
 -1        39 2.64698E-23-6.77626E-21-4.18623E-06-4.00681E-05-2.46456E-07-4.76456E-22
 -1        40-1.85288E-22-1.35525E-20-2.25273E-06-4.87196E-05-4.29190E-07-7.41154E-22
 -1        41-1.58819E-22-1.35525E-20 5.36975E-07-5.60399E-05-5.95076E-07-9.52912E-22
 -1        42-4.63221E-23-1.52466E-20 3.99485E-06-6.19326E-05-7.32089E-07-7.41154E-22
 -1        43 1.32349E-22-1.69407E-20 7.86270E-06-6.66082E-05-8.35487E-07-7.41154E-22
 -1        44 4.23516E-22-2.03288E-20 1.16718E-05-7.05948E-05-8.58090E-07-2.64698E-22
 -1        45 0.00000E+00 0.00000E+00 0.00000E+00 0.00000E+00 0.00000E+00 0.00000E+00
 -1        46 7.41154E-22-2.64698E-22-1.53067E-05-2.73709E-06 5.75982E-06-1.32349E-22
 -1        47 1.48231E-21-8.47033E-22-4.87461E-05-1.06196E-05 8.56033E-06-2.64698E-22
 -1        48 2.11758E-21-2.96462E-21-8.96837E-05-2.02875E-05 9.43629E-06-4.23516E-22
 -1        49 2.11758E-21-4.23516E-21-1.31595E-04-3.03708E-05 9.18917E-06-3.70577E-22
 -1        50 2.96462E-21-7.62330E-21-1.70646E-04-3.99761E-05 8.27909E-06-4.23516E-22
 -1        51 2.11758E-21-8.47033E-21-2.04575E-04-4.85753E-05 6.98294E-06-8.47033E-22
 -1        52 2.54110E-21-1.35525E-20-2.32184E-04-5.58569E-05 5.51061E-06-8.47033E-22
 -1        53 2.96462E-21-2.20229E-20-2.53251E-04-6.17079E-05 4.09009E-06-5.29396E-22
 -1        54 3.38813E-21-1.69407E-20-2.68782E-04-6.62966E-05 3.03161E-06-3.70577E-22
 -1        55 2.96462E-21-3.04932E-20-2.81943E-04-7.00552E-05 2.95764E-06-6.35275E-22
 -1        56 0.00000E+00 0.00000E+00 0.00000E+00 0.00000E+00 0.00000E+00 0.00000E+00
 -1        57 1.48231E-21-7.41154E-22-2.85579E-05-2.85477E-06 1.15046E-05-1.32349E-22
 -1        58 2.11758E-21-1.27055E-21-9.37768E-05-1.07584E-05 1.69647E-05-1.58819E-22
 -1        59 4.65868E-21-2.54110E-21-1.74478E-04-2.03751E-05 1.87407E-05-1.58819E-22
 -1        60 4.65868E-21-5.92923E-21-2.57900E-04-3.03443E-05 1.83806E-05-5.29396E-22
 -1        61 1.69407E-21-7.62330E-21-3.36582E-04-3.98348E-05 1.67485E-05-6.35275E-22
 -1        62 4.23516E-21-1.35525E-20-4.06035E-04-4.83315E-05 1.43476E-05-8.47033E-22
 -1        63 7.62330E-21-1.18585E-20-4.63709E-04-5.55060E-05 1.15564E-05-6.35275E-22
 -1        64 5.92923E-21-1.69407E-20-5.08797E-04-6.11900E-05 8.78148E-06-5.29396E-22
 -1        65 4.23516E-21-1.69407E-20-5.42689E-04-6.54196E-05 6.59615E-06-6.35275E-22
 -1        66 4.23516E-21-2.37169E-20-5.70590E-04-6.84364E-05 6.12478E-06-5.82335E-22
 -1        67 0.00000E+00 0.00000E+00 0.00000E+00 0.00000E+00 0.00000E+00 0.00000E+00
 -1        68 1.27055E-21-1.05879E-21-3.99670E-05-1.53756E-06 1.68422E-05-6.35275E-22
 -1        69 3.38813E-21-1.69407E-21-1.38331E-04-1.02989E-05 2.52931E-05-4.76456E-22
 -1        70 4.23516E-21-2.96462E-21-2.59690E-04-2.04238E-05 2.77409E-05-7.41154E-22
 -1        71 6.77626E-21-5.92923E-21-3.84904E-04-3.06773E-05 2.72241E-05-8.47033E-22
 -1        72 7.62330E-21-7.62330E-21-5.03253E-04-4.03259E-05 2.48759E-05-7.41154E-22
 -1        73 6.77626E-21-1.18585E-20-6.08128E-04-4.89018E-05 2.13926E-05-7.41154E-22
 -1        74 7.62330E-21-8.47033E-21-6.95577E-04-5.60706E-05 1.72814E-05-7.41154E-22
 -1        75 7.62330E-21-1.86347E-20-7.63963E-04-6.16126E-05 1.30712E-05-5.29396E-22
 -1        76 8.47033E-21-6.77626E-21-8.14505E-04-6.54225E-05 9.50903E-06-5.82335E-22
 -1        77 8.47033E-21-2.03288E-20-8.53254E-04-6.75291E-05 8.01695E-06 3.70577E-22
 -3
    1PSTEP                         3           1           1          
    1PGM                1.000000E+00                                  
    1PGK                2.500593E+02                                  
    1PHID                         -1                                  
    1PSUBC                         0                                  
    1PMODE                         3                                  
  100CL  103 2.516758995          77                     2    3MODAL      1
 -4  DISP        7    1
 -5  D1          1    2    1    0
 -5  D2          1    2    2    0
 -5  D3          1    2    3    0
 -5  D4          1    1    0    0
 -5  D5          1    1    0    0
 -5  D6          1    1    0    0
 -5  ALL         1    2    0    0    1ALL
 -1         1 0.00000E+00 0.00000E+00 0.00000E+00 0.00000E+00 0.00000E+00 0.00000E+00
 -1         2-3.38813E-21-1.05879E-21-5.63232E-05-1.30067E-06 2.54286E-05 8.47033E-22
 -1         3-5.08220E-21-2.54110E-21-1.98456E-04 2.22996E-06 3.69782E-05-2.11758E-22
 -1         4-2.03288E-20-8.47033E-21-3.59427E-04 7.23226E-06 3.34734E-05-4.23516E-22
 -1         5-6.77626E-21-1.01644E-20-4.77986E-04 1.14821E-05 1.82392E-05-2.11758E-21
 -1         6-6.77626E-21-2.03288E-20-5.11553E-04 1.38915E-05-3.94953E-06-6.35275E-22
 -1         7-2.03288E-20-2.71051E-20-4.40659E-04 1.41945E-05-2.77296E-05-2.11758E-22
 -1         8-2.71051E-20-2.71051E-20-2.69288E-04 1.27851E-05-4.81632E-05-2.11758E-22
 -1         9-3.38813E-20-2.71051E-20-2.04345E-05 1.05719E-05-6.18621E-05-1.27055E-21
 -1        10-2.03288E-20-4.06576E-20 2.73260E-04 8.73436E-06-6.80742E-05-2.54110E-21
 -1        11-1.35525E-20-6.77626E-20 5.83084E-04 7.76108E-06-6.91111E-05-2.96462E-21
 -1        12 0.00000E+00 0.00000E+00 0.00000E+00 0.00000E+00 0.00000E+00 0.00000E+00
 -1        13-1.27055E-21 1.32349E-23-5.61467E-05 7.09922E-07 2.45987E-05-2.64698E-22
 -1        14-3.38813E-21-1.69407E-21-1.88952E-04 2.50845E-06 3.42002E-05-6.35275E-22
 -1        15-3.38813E-21-6.77626E-21-3.35300E-04 4.84524E-06 3.03721E-05-1.05879E-21
 -1        16-1.01644E-20-1.01644E-20-4.40628E-04 6.96599E-06 1.59337E-05-1.48231E-21
 -1        17-6.77626E-21-1.69407E-20-4.66089E-04 8.30569E-06-4.98328E-06-1.05879E-21
 -1        18-1.69407E-20-6.77626E-21-3.93276E-04 8.69539E-06-2.75162E-05-1.27055E-21
 -1        19-1.69407E-20-2.71051E-20-2.25104E-04 8.32358E-06-4.71251E-05-1.27055E-21
 -1        20-2.03288E-20-4.06576E-20 1.80886E-05 7.62941E-06-6.06770E-05-1.69407E-21
 -1        21-1.01644E-20-2.71051E-20 3.06960E-04 7.12328E-06-6.73660E-05-2.54110E-21
 -1        22-2.03288E-20-4.06576E-20 6.15094E-04 7.11612E-06-6.93527E-05-8.47033E-22
 -1        23 0.00000E+00 0.00000E+00 0.00000E+00 0.00000E+00 0.00000E+00 0.00000E+00
 -1        24-4.23516E-22-3.17637E-22-5.36328E-05 4.34338E-07 2.35297E-05-5.29396E-22