
                        S T E P       1


                                INCREMENT     1


 displacements (vx,vy,vz) for set NALL and time  0.1000000E+01

         1  1.000000E-01  0.000000E+00  0.000000E+00
         2  1.000000E-01  1.000000E-01  2.892428E+02
         3  1.000000E-01  0.000000E+00  0.000000E+00
         4  1.000000E-01  9.995987E-02  2.892395E+02
         5  1.000000E-01  0.000000E+00  0.000000E+00
         6  1.000000E-01  9.991973E-02  2.892363E+02
         7  1.000000E-01  0.000000E+00  0.000000E+00
         8  1.000000E-01  9.987957E-02  2.892331E+02
         9  1.000000E-01  0.000000E+00  0.000000E+00
        10  1.000000E-01  9.983938E-02  2.892298E+02
        11  1.000000E-01  0.000000E+00  0.000000E+00
        12  1.000000E-01  9.979918E-02  2.892266E+02
        13  1.000000E-01  0.000000E+00  0.000000E+00
        14  1.000000E-01  9.975896E-02  2.892233E+02
        15  1.000000E-01  0.000000E+00  0.000000E+00
        16  1.000000E-01  9.971872E-02  2.892200E+02
        17  1.000000E-01  0.000000E+00  0.000000E+00
        18  1.000000E-01  9.967847E-02  2.892168E+02
        19  1.000000E-01  0.000000E+00  0.000000E+00

 temperatures for set NALL and time  0.1000000E+01

         1  0.000000E+00
         2  2.930000E+02
         3  0.000000E+00
         4  2.930000E+02
         5  0.000000E+00
         6  2.930000E+02
         7  0.000000E+00
         8  2.930000E+02
         9  0.000000E+00
        10  2.930000E+02
        11  0.000000E+00
        12  2.930000E+02
        13  0.000000E+00
        14  2.930000E+02
        15  0.000000E+00
        16  2.930000E+02
        17  0.000000E+00
        18  2.930000E+02
        19  0.000000E+00

 mass flows for set NALL and time  0.1000000E+01

         1  1.000000E-01
         2  1.000000E-01
         3  1.000000E-01
         4  1.000000E-01
         5  1.000000E-01
         6  1.000000E-01
         7  1.000000E-01
         8  1.000000E-01
         9  1.000000E-01
        10  1.000000E-01
        11  1.000000E-01
        12  1.000000E-01
        13  1.000000E-01
        14  1.000000E-01
        15  1.000000E-01
        16  1.000000E-01
        17  1.000000E-01
        18  1.000000E-01
        19  1.000000E-01

 network pressures (total pressure for gases, static pressure for liquids and fluid depth for channels) for set NALL and time  0.1000000E+01

         1  0.000000E+00
         2  1.000000E-01
         3  0.000000E+00
         4  9.995987E-02
         5  0.000000E+00
         6  9.991973E-02
         7  0.000000E+00
         8  9.987957E-02
         9  0.000000E+00
        10  9.983938E-02
        11  0.000000E+00
        12  9.979918E-02
        13  0.000000E+00
        14  9.975896E-02
        15  0.000000E+00
        16  9.971872E-02
        17  0.000000E+00
        18  9.967847E-02
        19  0.000000E+00
