
                        S T E P       1


                                INCREMENT     1


 displacements (vx,vy,vz) for set NALL and time  0.1000000E+01

         1  4.447552E-04  0.000000E+00  0.000000E+00
         2  4.447552E-04  4.700000E-01  5.500000E+02
         3  4.447552E-04  0.000000E+00  0.000000E+00
         4  4.447552E-04  4.678554E-01  5.211474E+02
         5  4.447552E-04  0.000000E+00  0.000000E+00
         6  4.447552E-04  4.656989E-01  5.207675E+02
         7  4.447552E-04  0.000000E+00  0.000000E+00
         8  4.447552E-04  4.635226E-01  5.203749E+02
         9  4.447552E-04  0.000000E+00  0.000000E+00
        10  4.447552E-04  4.613259E-01  5.199689E+02
        11  4.447552E-04  0.000000E+00  0.000000E+00
        12  4.447552E-04  4.591080E-01  5.195487E+02
        13  4.447552E-04  0.000000E+00  0.000000E+00
        14  4.447552E-04  4.568682E-01  5.191134E+02
        15  4.447552E-04  0.000000E+00  0.000000E+00
        16  4.447552E-04  4.546057E-01  5.186621E+02
        17  4.447552E-04  0.000000E+00  0.000000E+00
        18  4.447552E-04  4.523197E-01  5.181937E+02
        19  4.447552E-04  0.000000E+00  0.000000E+00
        20  4.447552E-04  4.500000E-01  5.500000E+02
        21  4.447552E-04  0.000000E+00  0.000000E+00

 temperatures for set NALL and time  0.1000000E+01

         1  0.000000E+00
         2  5.500000E+02
         3  0.000000E+00
         4  5.500000E+02
         5  0.000000E+00
         6  5.500000E+02
         7  0.000000E+00
         8  5.500000E+02
         9  0.000000E+00
        10  5.500000E+02
        11  0.000000E+00
        12  5.500000E+02
        13  0.000000E+00
        14  5.500000E+02
        15  0.000000E+00
        16  5.500000E+02
        17  0.000000E+00
        18  5.500000E+02
        19  0.000000E+00
        20  5.500000E+02
        21  0.000000E+00

 mass flows for set NALL and time  0.1000000E+01

         1  4.447552E-04
         2  4.447552E-04
         3  4.447552E-04
         4  4.447552E-04
         5  4.447552E-04
         6  4.447552E-04
         7  4.447552E-04
         8  4.447552E-04
         9  4.447552E-04
        10  4.447552E-04
        11  4.447552E-04
        12  4.447552E-04
        13  4.447552E-04
        14  4.447552E-04
        15  4.447552E-04
        16  4.447552E-04
        17  4.447552E-04
        18  4.447552E-04
        19  4.447552E-04
        20  4.447552E-04
        21  4.447552E-04

 network pressures (total pressure for gases, static pressure for liquids and fluid depth for channels) for set NALL and time  0.1000000E+01

         1  0.000000E+00
         2  4.700000E-01
         3  0.000000E+00
         4  4.678554E-01
         5  0.000000E+00
         6  4.656989E-01
         7  0.000000E+00
         8  4.635226E-01
         9  0.000000E+00
        10  4.613259E-01
        11  0.000000E+00
        12  4.591080E-01
        13  0.000000E+00
        14  4.568682E-01
        15  0.000000E+00
        16  4.546057E-01
        17  0.000000E+00
        18  4.523197E-01
        19  0.000000E+00
        20  4.500000E-01
        21  0.000000E+00
