
                        S T E P       1


                                INCREMENT     1


 displacements (vx,vy,vz) for set NALL and time  0.1000000E+01

         1  1.908089E-04  0.000000E+00  0.000000E+00
         2  1.908089E-04  4.700000E-01  5.500000E+02
         3  1.908089E-04  0.000000E+00  0.000000E+00
         4  1.908089E-04  4.678071E-01  5.458457E+02
         5  1.908089E-04  0.000000E+00  0.000000E+00
         6  1.908089E-04  4.656077E-01  5.458047E+02
         7  1.908089E-04  0.000000E+00  0.000000E+00
         8  1.908089E-04  4.634010E-01  5.457629E+02
         9  1.908089E-04  0.000000E+00  0.000000E+00
        10  1.908089E-04  4.611868E-01  5.457204E+02
        11  1.908089E-04  0.000000E+00  0.000000E+00
        12  1.908089E-04  4.589651E-01  5.456770E+02
        13  1.908089E-04  0.000000E+00  0.000000E+00
        14  1.908089E-04  4.567357E-01  5.456328E+02
        15  1.908089E-04  0.000000E+00  0.000000E+00
        16  1.908089E-04  4.544986E-01  5.455878E+02
        17  1.908089E-04  0.000000E+00  0.000000E+00
        18  1.908089E-04  4.522537E-01  5.455418E+02
        19  1.908089E-04  0.000000E+00  0.000000E+00
        20  1.908089E-04  4.500000E-01  5.500000E+02
        21  1.908089E-04  0.000000E+00  0.000000E+00

 temperatures for set NALL and time  0.1000000E+01

         1  0.000000E+00
         2  5.500000E+02
         3  0.000000E+00
         4  5.500000E+02
         5  0.000000E+00
         6  5.500000E+02
         7  0.000000E+00
         8  5.500000E+02
         9  0.000000E+00
        10  5.500000E+02
        11  0.000000E+00
        12  5.500000E+02
        13  0.000000E+00
        14  5.500000E+02
        15  0.000000E+00
        16  5.500000E+02
        17  0.000000E+00
        18  5.500000E+02
        19  0.000000E+00
        20  5.500000E+02
        21  0.000000E+00

 mass flows for set NALL and time  0.1000000E+01

         1  1.908089E-04
         2  1.908089E-04
         3  1.908089E-04
         4  1.908089E-04
         5  1.908089E-04
         6  1.908089E-04
         7  1.908089E-04
         8  1.908089E-04
         9  1.908089E-04
        10  1.908089E-04
        11  1.908089E-04
        12  1.908089E-04
        13  1.908089E-04
        14  1.908089E-04
        15  1.908089E-04
        16  1.908089E-04
        17  1.908089E-04
        18  1.908089E-04
        19  1.908089E-04
        20  1.908089E-04
        21  1.908089E-04

 network pressures (total pressure for gases, static pressure for liquids and fluid depth for channels) for set NALL and time  0.1000000E+01

         1  0.000000E+00
         2  4.700000E-01
         3  0.000000E+00
         4  4.678071E-01
         5  0.000000E+00
         6  4.656077E-01
         7  0.000000E+00
         8  4.634010E-01
         9  0.000000E+00
        10  4.611868E-01
        11  0.000000E+00
        12  4.589651E-01
        13  0.000000E+00
        14  4.567357E-01
        15  0.000000E+00
        16  4.544986E-01
        17  0.000000E+00
        18  4.522537E-01
        19  0.000000E+00
        20  4.500000E-01
        21  0.000000E+00
