    1C
    1UUSER                                                              
    1UDATE              27.june.2025                                    
    1UTIME              16:38:19                                        
    1UHOST                                                              
    1UPGM               CalculiX                                        
    1UVERSION           Version DEVELOPMENT                             
    1UCOMPILETIME       Thu Jun 19 12:45:50 CEST 2025                    
    1UDIR                                                               
    1UDBN                                                               
    1UMAT    1EL                                                        
    2C                           288                                     1
 -1       122 1.36359E+02 4.44903E+01-2.38016E+00
 -1       123 1.36380E+02 4.44903E+01 8.35085E-15
 -1       124 1.36359E+02 4.44903E+01 2.38016E+00
 -1       125 1.36359E+02 4.19903E+01-2.38016E+00
 -1       127 1.36359E+02 4.19903E+01 2.38016E+00
 -1       128 1.36359E+02 3.94903E+01-2.38016E+00
 -1       129 1.36380E+02 3.94903E+01 8.35085E-15
 -1       130 1.36359E+02 3.94903E+01 2.38016E+00
 -1       131 1.36359E+02 3.69903E+01-2.38016E+00
 -1       133 1.36359E+02 3.69903E+01 2.38016E+00
 -1       134 1.36359E+02 3.44903E+01-2.38015E+00
 -1       135 1.36380E+02 3.44903E+01 8.35085E-15
 -1       136 1.36359E+02 3.44903E+01 2.38015E+00
 -1       137 1.36359E+02 3.19903E+01-2.38015E+00
 -1       139 1.36359E+02 3.19903E+01 2.38015E+00
 -1       140 1.36359E+02 2.94903E+01-2.38015E+00
 -1       141 1.36380E+02 2.94903E+01 8.35085E-15
 -1       142 1.36359E+02 2.94903E+01 2.38015E+00
 -1       143 1.26361E+02 4.44903E+01-2.20563E+00
 -1       144 1.26380E+02 4.44903E+01 7.73853E-15
 -1       145 1.26361E+02 4.44903E+01 2.20563E+00
 -1       146 1.26361E+02 4.19903E+01-2.20563E+00
 -1       148 1.26361E+02 4.19903E+01 2.20563E+00
 -1       149 1.26361E+02 3.94903E+01-2.20563E+00
 -1       150 1.26380E+02 3.94903E+01 7.73853E-15
 -1       151 1.26361E+02 3.94903E+01 2.20563E+00
 -1       152 1.26361E+02 3.69903E+01-2.20563E+00
 -1       154 1.26361E+02 3.69903E+01 2.20563E+00
 -1       155 1.26361E+02 3.44903E+01-2.20563E+00
 -1       156 1.26380E+02 3.44903E+01 7.73853E-15
 -1       157 1.26361E+02 3.44903E+01 2.20563E+00
 -1       158 1.26361E+02 3.19903E+01-2.20563E+00
 -1       160 1.26361E+02 3.19903E+01 2.20563E+00
 -1       161 1.26361E+02 2.94903E+01-2.20563E+00
 -1       162 1.26380E+02 2.94903E+01 7.73853E-15
 -1       163 1.26361E+02 2.94903E+01 2.20563E+00
 -1       164 1.28860E+02 2.94903E+01-2.24926E+00
 -1       166 1.28860E+02 2.94903E+01 2.24926E+00
 -1       167 1.31360E+02 2.94903E+01-2.29289E+00
 -1       168 1.31380E+02 2.94903E+01 8.04469E-15
 -1       169 1.31360E+02 2.94903E+01 2.29289E+00
 -1       170 1.33859E+02 2.94903E+01-2.33652E+00
 -1       172 1.33859E+02 2.94903E+01 2.33652E+00
 -1       173 1.33859E+02 4.44903E+01-2.33652E+00
 -1       175 1.33859E+02 4.44903E+01 2.33652E+00
 -1       176 1.31360E+02 4.44903E+01-2.29289E+00
 -1       177 1.31380E+02 4.44903E+01 8.04469E-15
 -1       178 1.31360E+02 4.44903E+01 2.29289E+00
 -1       179 1.28860E+02 4.44903E+01-2.24926E+00
 -1       181 1.28860E+02 4.44903E+01 2.24926E+00
 -1       182 1.33859E+02 3.44903E+01-2.33652E+00
 -1       184 1.33859E+02 3.44903E+01 2.33652E+00
 -1       185 1.31360E+02 3.44903E+01-2.29289E+00
 -1       186 1.31380E+02 3.44903E+01 8.04469E-15
 -1       187 1.31360E+02 3.44903E+01 2.29289E+00
 -1       188 1.28860E+02 3.44903E+01-2.24926E+00
 -1       190 1.28860E+02 3.44903E+01 2.24926E+00
 -1       191 1.31360E+02 3.19903E+01-2.29289E+00
 -1       193 1.31360E+02 3.19903E+01 2.29289E+00
 -1       194 1.31360E+02 4.19903E+01-2.29289E+00
 -1       196 1.31360E+02 4.19903E+01 2.29289E+00
 -1       197 1.31360E+02 3.94903E+01-2.29289E+00
 -1       198 1.31380E+02 3.94903E+01 8.04469E-15
 -1       199 1.31360E+02 3.94903E+01 2.29289E+00
 -1       200 1.31360E+02 3.69903E+01-2.29289E+00
 -1       202 1.31360E+02 3.69903E+01 2.29289E+00
 -1       203 1.33859E+02 3.94903E+01-2.33652E+00
 -1       205 1.33859E+02 3.94903E+01 2.33652E+00
 -1       206 1.28860E+02 3.94903E+01-2.24926E+00
 -1       208 1.28860E+02 3.94903E+01 2.24926E+00
 -1       209 1.41358E+02 6.07976E+01-2.46742E+00
 -1       210 1.41380E+02 6.07976E+01 8.65701E-15
 -1       211 1.41358E+02 6.07976E+01 2.46742E+00
 -1       212 1.40108E+02 6.07976E+01-2.44560E+00
 -1       214 1.40108E+02 6.07976E+01 2.44560E+00
 -1       215 1.38859E+02 6.07976E+01-2.42379E+00
 -1       216 1.38880E+02 6.07976E+01 8.50393E-15
 -1       217 1.38859E+02 6.07976E+01 2.42379E+00
 -1       218 1.37609E+02 6.07976E+01-2.40197E+00
 -1       220 1.37609E+02 6.07976E+01 2.40197E+00
 -1       221 1.36359E+02 6.07976E+01-2.38016E+00
 -1       222 1.36380E+02 6.07976E+01 8.35085E-15
 -1       223 1.36359E+02 6.07976E+01 2.38016E+00
 -1       224 1.36359E+02 5.67207E+01-2.38016E+00
 -1       226 1.36359E+02 5.67207E+01 2.38016E+00
 -1       227 1.36359E+02 5.26439E+01-2.38016E+00
 -1       228 1.36380E+02 5.26439E+01 8.35085E-15
 -1       229 1.36359E+02 5.26439E+01 2.38016E+00
 -1       230 1.36359E+02 4.85671E+01-2.38016E+00
 -1       232 1.36359E+02 4.85671E+01 2.38016E+00
 -1       233 1.36359E+02 2.71537E+01-2.38015E+00
 -1       235 1.36359E+02 2.71537E+01 2.38015E+00
 -1       236 1.36359E+02 2.48171E+01-2.38015E+00
 -1       237 1.36380E+02 2.48171E+01 8.35085E-15
 -1       238 1.36359E+02 2.48171E+01 2.38015E+00
 -1       239 1.36359E+02 2.24805E+01-2.38015E+00
 -1       241 1.36359E+02 2.24805E+01 2.38015E+00
 -1       242 1.36359E+02 2.01439E+01-2.38015E+00
 -1       243 1.36380E+02 2.01439E+01 8.35085E-15
 -1       244 1.36359E+02 2.01439E+01 2.38015E+00
 -1       245 1.36359E+02 1.78073E+01-2.38015E+00
 -1       247 1.36359E+02 1.78073E+01 2.38015E+00
 -1       248 1.36359E+02 1.54707E+01-2.38015E+00
 -1       249 1.36380E+02 1.54707E+01 8.35085E-15
 -1       250 1.36359E+02 1.54707E+01 2.38015E+00
 -1       251 1.36359E+02 1.31342E+01-2.38015E+00
 -1       253 1.36359E+02 1.31342E+01 2.38015E+00
 -1       254 1.36359E+02 1.07976E+01-2.38015E+00
 -1       255 1.36380E+02 1.07976E+01 8.35085E-15
 -1       256 1.36359E+02 1.07976E+01 2.38015E+00
 -1       257 1.37609E+02 1.07976E+01-2.40197E+00
 -1       259 1.37609E+02 1.07976E+01 2.40197E+00
 -1       260 1.38859E+02 1.07976E+01-2.42379E+00
 -1       261 1.38880E+02 1.07976E+01 8.50393E-15
 -1       262 1.38859E+02 1.07976E+01 2.42379E+00
 -1       263 1.40108E+02 1.07976E+01-2.44560E+00
 -1       265 1.40108E+02 1.07976E+01 2.44560E+00
 -1       266 1.41358E+02 1.07976E+01-2.46742E+00
 -1       267 1.41380E+02 1.07976E+01 8.65701E-15
 -1       268 1.41358E+02 1.07976E+01 2.46742E+00
 -1       269 1.41358E+02 1.31342E+01-2.46742E+00
 -1       271 1.41358E+02 1.31342E+01 2.46742E+00
 -1       272 1.41358E+02 1.54707E+01-2.46742E+00
 -1       273 1.41380E+02 1.54707E+01 8.65701E-15
 -1       274 1.41358E+02 1.54707E+01 2.46742E+00
 -1       275 1.41358E+02 1.78073E+01-2.46742E+00
 -1       277 1.41358E+02 1.78073E+01 2.46742E+00
 -1       278 1.41358E+02 2.01439E+01-2.46742E+00
 -1       279 1.41380E+02 2.01439E+01 8.65701E-15
 -1       280 1.41358E+02 2.01439E+01 2.46742E+00
 -1       281 1.41358E+02 2.24805E+01-2.46742E+00
 -1       283 1.41358E+02 2.24805E+01 2.46742E+00
 -1       284 1.41358E+02 2.48171E+01-2.46742E+00
 -1       285 1.41380E+02 2.48171E+01 8.65701E-15
 -1       286 1.41358E+02 2.48171E+01 2.46742E+00
 -1       287 1.41358E+02 2.71537E+01-2.46742E+00
 -1       289 1.41358E+02 2.71537E+01 2.46742E+00
 -1       290 1.41358E+02 2.94903E+01-2.46742E+00
 -1       291 1.41380E+02 2.94903E+01 8.65701E-15
 -1       292 1.41358E+02 2.94903E+01 2.46742E+00
 -1       293 1.41358E+02 3.19903E+01-2.46742E+00
 -1       295 1.41358E+02 3.19903E+01 2.46742E+00
 -1       296 1.41358E+02 3.44903E+01-2.46742E+00
 -1       297 1.41380E+02 3.44903E+01 8.65701E-15
 -1       298 1.41358E+02 3.44903E+01 2.46742E+00
 -1       299 1.41358E+02 3.69903E+01-2.46742E+00
 -1       301 1.41358E+02 3.69903E+01 2.46742E+00
 -1       302 1.41358E+02 3.94903E+01-2.46742E+00
 -1       303 1.41380E+02 3.94903E+01 8.65701E-15
 -1       304 1.41358E+02 3.94903E+01 2.46742E+00
 -1       305 1.41358E+02 4.19903E+01-2.46742E+00
 -1       307 1.41358E+02 4.19903E+01 2.46742E+00
 -1       308 1.41358E+02 4.44903E+01-2.46742E+00
 -1       309 1.41380E+02 4.44903E+01 8.65701E-15
 -1       310 1.41358E+02 4.44903E+01 2.46742E+00
 -1       311 1.41358E+02 4.85671E+01-2.46742E+00
 -1       313 1.41358E+02 4.85671E+01 2.46742E+00
 -1       314 1.41358E+02 5.26439E+01-2.46742E+00
 -1       315 1.41380E+02 5.26439E+01 8.65701E-15
 -1       316 1.41358E+02 5.26439E+01 2.46742E+00
 -1       317 1.41358E+02 5.67207E+01-2.46742E+00
 -1       319 1.41358E+02 5.67207E+01 2.46742E+00
 -1       320 1.37609E+02 3.44903E+01-2.40197E+00
 -1       322 1.37609E+02 3.44903E+01 2.40197E+00
 -1       323 1.38859E+02 3.44903E+01-2.42379E+00
 -1       324 1.38880E+02 3.44903E+01 8.50393E-15
 -1       325 1.38859E+02 3.44903E+01 2.42379E+00
 -1       326 1.40108E+02 3.44903E+01-2.44560E+00
 -1       328 1.40108E+02 3.44903E+01 2.44560E+00
 -1       329 1.37609E+02 4.44903E+01-2.40197E+00
 -1       331 1.37609E+02 4.44903E+01 2.40197E+00
 -1       332 1.38859E+02 4.44903E+01-2.42379E+00
 -1       333 1.38880E+02 4.44903E+01 8.50393E-15
 -1       334 1.38859E+02 4.44903E+01 2.42379E+00
 -1       335 1.40108E+02 4.44903E+01-2.44560E+00
 -1       337 1.40108E+02 4.44903E+01 2.44560E+00
 -1       338 1.37609E+02 5.26439E+01-2.40197E+00
 -1       340 1.37609E+02 5.26439E+01 2.40197E+00
 -1       341 1.38859E+02 5.26439E+01-2.42379E+00
 -1       342 1.38880E+02 5.26439E+01 8.50393E-15
 -1       343 1.38859E+02 5.26439E+01 2.42379E+00
 -1       344 1.40108E+02 5.26439E+01-2.44560E+00
 -1       346 1.40108E+02 5.26439E+01 2.44560E+00
 -1       347 1.38859E+02 5.67207E+01-2.42379E+00
 -1       349 1.38859E+02 5.67207E+01 2.42379E+00
 -1       350 1.38859E+02 4.85671E+01-2.42379E+00
 -1       352 1.38859E+02 4.85671E+01 2.42379E+00
 -1       353 1.37609E+02 3.94903E+01-2.40197E+00
 -1       355 1.37609E+02 3.94903E+01 2.40197E+00
 -1       356 1.38859E+02 3.94903E+01-2.42379E+00
 -1       357 1.38880E+02 3.94903E+01 8.50393E-15
 -1       358 1.38859E+02 3.94903E+01 2.42379E+00
 -1       359 1.40108E+02 3.94903E+01-2.44560E+00
 -1       361 1.40108E+02 3.94903E+01 2.44560E+00
 -1       362 1.38859E+02 4.19903E+01-2.42379E+00
 -1       364 1.38859E+02 4.19903E+01 2.42379E+00
 -1       365 1.38859E+02 3.69903E+01-2.42379E+00
 -1       367 1.38859E+02 3.69903E+01 2.42379E+00
 -1       368 1.37609E+02 2.48171E+01-2.40197E+00
 -1       370 1.37609E+02 2.48171E+01 2.40197E+00
 -1       371 1.38859E+02 2.48171E+01-2.42379E+00
 -1       372 1.38880E+02 2.48171E+01 8.50393E-15
 -1       373 1.38859E+02 2.48171E+01 2.42379E+00
 -1       374 1.40108E+02 2.48171E+01-2.44560E+00
 -1       376 1.40108E+02 2.48171E+01 2.44560E+00
 -1       377 1.37609E+02 2.94903E+01-2.40197E+00
 -1       379 1.37609E+02 2.94903E+01 2.40197E+00
 -1       380 1.38859E+02 2.94903E+01-2.42379E+00
 -1       381 1.38880E+02 2.94903E+01 8.50393E-15
 -1       382 1.38859E+02 2.94903E+01 2.42379E+00
 -1       383 1.40108E+02 2.94903E+01-2.44560E+00
 -1       385 1.40108E+02 2.94903E+01 2.44560E+00
 -1       386 1.38859E+02 3.19903E+01-2.42379E+00
 -1       388 1.38859E+02 3.19903E+01 2.42379E+00
 -1       389 1.38859E+02 2.71537E+01-2.42379E+00
 -1       391 1.38859E+02 2.71537E+01 2.42379E+00
 -1       392 1.37609E+02 2.01439E+01-2.40197E+00
 -1       394 1.37609E+02 2.01439E+01 2.40197E+00
 -1       395 1.38859E+02 2.01439E+01-2.42379E+00
 -1       396 1.38880E+02 2.01439E+01 8.50393E-15
 -1       397 1.38859E+02 2.01439E+01 2.42379E+00
 -1       398 1.40108E+02 2.01439E+01-2.44560E+00
 -1       400 1.40108E+02 2.01439E+01 2.44560E+00
 -1       401 1.38859E+02 2.24805E+01-2.42379E+00
 -1       403 1.38859E+02 2.24805E+01 2.42379E+00
 -1       404 1.37609E+02 1.54707E+01-2.40197E+00
 -1       406 1.37609E+02 1.54707E+01 2.40197E+00
 -1       407 1.38859E+02 1.54707E+01-2.42379E+00
 -1       408 1.38880E+02 1.54707E+01 8.50393E-15
 -1       409 1.38859E+02 1.54707E+01 2.42379E+00
 -1       410 1.40108E+02 1.54707E+01-2.44560E+00
 -1       412 1.40108E+02 1.54707E+01 2.44560E+00
 -1       413 1.38859E+02 1.78073E+01-2.42379E+00
 -1       415 1.38859E+02 1.78073E+01 2.42379E+00
 -1       416 1.38859E+02 1.31342E+01-2.42379E+00
 -1       418 1.38859E+02 1.31342E+01 2.42379E+00
 -1       419 1.51357E+02 2.94903E+01-2.64194E+00
 -1       420 1.51380E+02 2.94903E+01 9.26934E-15
 -1       421 1.51357E+02 2.94903E+01 2.64194E+00
 -1       422 1.51357E+02 3.19903E+01-2.64194E+00
 -1       424 1.51357E+02 3.19903E+01 2.64194E+00
 -1       425 1.51357E+02 3.44903E+01-2.64194E+00
 -1       426 1.51380E+02 3.44903E+01 9.26934E-15
 -1       427 1.51357E+02 3.44903E+01 2.64194E+00
 -1       428 1.51357E+02 3.69903E+01-2.64194E+00
 -1       430 1.51357E+02 3.69903E+01 2.64194E+00
 -1       431 1.51357E+02 3.94903E+01-2.64194E+00
 -1       432 1.51380E+02 3.94903E+01 9.26934E-15
 -1       433 1.51357E+02 3.94903E+01 2.64194E+00
 -1       434 1.51357E+02 4.19903E+01-2.64194E+00
 -1       436 1.51357E+02 4.19903E+01 2.64194E+00
 -1       437 1.51357E+02 4.44903E+01-2.64194E+00
 -1       438 1.51380E+02 4.44903E+01 9.26934E-15
 -1       439 1.51357E+02 4.44903E+01 2.64194E+00
 -1       440 1.48857E+02 4.44903E+01-2.59831E+00
 -1       442 1.48857E+02 4.44903E+01 2.59831E+00
 -1       443 1.46357E+02 4.44903E+01-2.55468E+00
 -1       444 1.46380E+02 4.44903E+01 8.96318E-15
 -1       445 1.46357E+02 4.44903E+01 2.55468E+00
 -1       446 1.43858E+02 4.44903E+01-2.51105E+00
 -1       448 1.43858E+02 4.44903E+01 2.51105E+00
 -1       449 1.43858E+02 2.94903E+01-2.51105E+00
 -1       451 1.43858E+02 2.94903E+01 2.51105E+00
 -1       452 1.46357E+02 2.94903E+01-2.55468E+00
 -1       453 1.46380E+02 2.94903E+01 8.96317E-15
 -1       454 1.46357E+02 2.94903E+01 2.55468E+00
 -1       455 1.48857E+02 2.94903E+01-2.59831E+00
 -1       457 1.48857E+02 2.94903E+01 2.59831E+00
 -1       458 1.43858E+02 3.94903E+01-2.51105E+00
 -1       460 1.43858E+02 3.94903E+01 2.51105E+00
 -1       461 1.46357E+02 3.94903E+01-2.55468E+00
 -1       462 1.46380E+02 3.94903E+01 8.96318E-15
 -1       463 1.46357E+02 3.94903E+01 2.55468E+00
 -1       464 1.48857E+02 3.94903E+01-2.59831E+00
 -1       466 1.48857E+02 3.94903E+01 2.59831E+00
 -1       467 1.46357E+02 4.19903E+01-2.55468E+00
 -1       469 1.46357E+02 4.19903E+01 2.55468E+00
 -1       470 1.43858E+02 3.44903E+01-2.51105E+00
 -1       472 1.43858E+02 3.44903E+01 2.51105E+00
 -1       473 1.46357E+02 3.44903E+01-2.55468E+00
 -1       474 1.46380E+02 3.44903E+01 8.96317E-15
 -1       475 1.46357E+02 3.44903E+01 2.55468E+00
 -1       476 1.48857E+02 3.44903E+01-2.59831E+00
 -1       478 1.48857E+02 3.44903E+01 2.59831E+00
 -1       479 1.46357E+02 3.69903E+01-2.55468E+00
 -1       481 1.46357E+02 3.69903E+01 2.55468E+00
 -1       482 1.46357E+02 3.19903E+01-2.55468E+00
 -1       484 1.46357E+02 3.19903E+01 2.55468E+00
 -3
    3C                            30                                     1
 -1         1    4    0    1
 -2       140       134       185       167       142       136       187       169       137       182
 -2       191       170       141       135       186       168       139       184       193       172
 -1         2    4    0    1
 -2       167       185       155       161       169       187       157       163       191       188
 -2       158       164       168       186       156       162       193       190       160       166
 -1         3    4    0    1
 -2       176       197       128       122       178       199       130       124       194       203
 -2       125       173       177       198       129       123       196       205       127       175
 -1         4    4    0    1
 -2       197       185       134       128       199       187       136       130       200       182
 -2       131       203       198       186       135       129       202       184       133       205
 -1         5    4    0    1
 -2       143       149       197       176       145       151       199       178       146       206
 -2       194       179       144       150       198       177       148       208       196       181
 -1         6    4    0    1
 -2       149       155       185       197       151       157       187       199       152       188
 -2       200       206       150       156       186       198       154       190       202       208
 -1         7    4    0    1
 -2       227       341       215       221       229       343       217       223       338       347
 -2       218       224       228       342       216       222       340       349       220       226
 -1         8    4    0    1
 -2       341       314       209       215       343       316       211       217       344       317
 -2       212       347       342       315       210       216       346       319       214       349
 -1         9    4    0    1
 -2       122       332       341       227       124       334       343       229       329       350
 -2       338       230       123       333       342       228       331       352       340       232
 -1        10    4    0    1
 -2       332       308       314       341       334       310       316       343       335       311
 -2       344       350       333       309       315       342       337       313       346       352
 -1        11    4    0    1
 -2       128       356       332       122       130       358       334       124       353       362
 -2       329       125       129       357       333       123       355       364       331       127
 -1        12    4    0    1
 -2       356       302       308       332       358       304       310       334       359       305
 -2       335       362       357       303       309       333       361       307       337       364
 -1        13    4    0    1
 -2       134       323       356       128       136       325       358       130       320       365
 -2       353       131       135       324       357       129       322       367       355       133
 -1        14    4    0    1
 -2       323       296       302       356       325       298       304       358       326       299
 -2       359       365       324       297       303       357       328       301       361       367
 -1        15    4    0    1
 -2       140       380       323       134       142       382       325       136       377       386
 -2       320       137       141       381       324       135       379       388       322       139
 -1        16    4    0    1
 -2       380       290       296       323       382       292       298       325       383       293
 -2       326       386       381       291       297       324       385       295       328       388
 -1        17    4    0    1
 -2       236       371       380       140       238       373       382       142       368       389
 -2       377       233       237       372       381       141       370       391       379       235
 -1        18    4    0    1
 -2       371       284       290       380       373       286       292       382       374       287
 -2       383       389       372       285       291       381       376       289       385       391
 -1        19    4    0    1
 -2       242       395       371       236       244       397       373       238       392       401
 -2       368       239       243       396       372       237       394       403       370       241
 -1        20    4    0    1
 -2       395       278       284       371       397       280       286       373       398       281
 -2       374       401       396       279       285       372       400       283       376       403
 -1        21    4    0    1
 -2       248       407       395       242       250       409       397       244       404       413
 -2       392       245       249       408       396       243       406       415       394       247
 -1        22    4    0    1
 -2       407       272       278       395       409       274       280       397       410       275
 -2       398       413       408       273       279       396       412       277       400       415
 -1        23    4    0    1
 -2       254       260       407       248       256       262       409       250       257       416
 -2       404       251       255       261       408       249       259       418       406       253
 -1        24    4    0    1
 -2       260       266       272       407       262       268       274       409       263       269
 -2       410       416       261       267       273       408       265       271       412       418
 -1        25    4    0    1
 -2       308       302       461       443       310       304       463       445       305       458
 -2       467       446       309       303       462       444       307       460       469       448
 -1        26    4    0    1
 -2       443       461       431       437       445       463       433       439       467       464
 -2       434       440       444       462       432       438       469       466       436       442
 -1        27    4    0    1
 -2       302       296       473       461       304       298       475       463       299       470
 -2       479       458       303       297       474       462       301       472       481       460
 -1        28    4    0    1
 -2       461       473       425       431       463       475       427       433       479       476
 -2       428       464       462       474       426       432       481       478       430       466
 -1        29    4    0    1
 -2       296       290       452       473       298       292       454       475       293       449
 -2       482       470       297       291       453       474       295       451       484       472
 -1        30    4    0    1
 -2       473       452       419       425       475       454       421       427       482       455
 -2       422       476       474       453       420       426       484       457       424       478
 -3
    1PSTEP                         1           1           1          
  100CL  101 1.000000000         288                     0    1           1
 -4  DISP        4    1
 -5  D1          1    2    1    0
 -5  D2          1    2    2    0
 -5  D3          1    2    3    0
 -5  ALL         1    2    0    0    1ALL
 -1       122 1.19664E+00 2.57575E-01-2.08874E-02
 -1       123 1.19682E+00 2.57575E-01 7.32843E-17
 -1       124 1.19664E+00 2.57575E-01 2.08874E-02
 -1       125 1.19823E+00 2.38936E-01-2.09152E-02
 -1       127 1.19823E+00 2.38936E-01 2.09152E-02
 -1       128 1.19864E+00 2.20468E-01-2.09223E-02
 -1       129 1.19882E+00 2.20468E-01 7.34066E-17
 -1       130 1.19864E+00 2.20468E-01 2.09223E-02
 -1       131 1.19775E+00 2.02178E-01-2.09068E-02
 -1       133 1.19775E+00 2.02178E-01 2.09068E-02
 -1       134 1.19559E+00 1.83940E-01-2.08691E-02
 -1       135 1.19577E+00 1.83940E-01 7.32199E-17
 -1       136 1.19559E+00 1.83940E-01 2.08691E-02
 -1       137 1.19216E+00 1.65589E-01-2.08093E-02
 -1       139 1.19216E+00 1.65589E-01 2.08093E-02
 -1       140 1.18757E+00 1.47115E-01-2.07290E-02
 -1       141 1.18775E+00 1.47115E-01 7.27285E-17
 -1       142 1.18757E+00 1.47115E-01 2.07290E-02
 -1       143 1.13251E+00 2.46541E-01-1.97681E-02
 -1       144 1.13269E+00 2.46541E-01 6.93571E-17
 -1       145 1.13251E+00 2.46541E-01 1.97681E-02
 -1       146 1.13469E+00 2.33428E-01-1.98060E-02
 -1       148 1.13469E+00 2.33428E-01 1.98060E-02
 -1       149 1.13553E+00 2.20440E-01-1.98208E-02
 -1       150 1.13570E+00 2.20440E-01 6.95418E-17
 -1       151 1.13553E+00 2.20440E-01 1.98208E-02
 -1       152 1.13500E+00 2.07518E-01-1.98114E-02
 -1       154 1.13500E+00 2.07518E-01 1.98114E-02
 -1       155 1.13315E+00 1.94670E-01-1.97791E-02
 -1       156 1.13332E+00 1.94670E-01 6.93957E-17
 -1       157 1.13315E+00 1.94670E-01 1.97791E-02
 -1       158 1.12991E+00 1.81919E-01-1.97227E-02
 -1       160 1.12991E+00 1.81919E-01 1.97227E-02
 -1       161 1.12536E+00 1.69172E-01-1.96431E-02
 -1       162 1.12553E+00 1.69172E-01 6.89186E-17
 -1       163 1.12536E+00 1.69172E-01 1.96431E-02
 -1       164 1.13875E+00 1.63948E-01-1.98770E-02
 -1       166 1.13875E+00 1.63948E-01 1.98770E-02
 -1       167 1.15360E+00 1.58619E-01-2.01361E-02
 -1       168 1.15377E+00 1.58619E-01 7.06481E-17
 -1       169 1.15360E+00 1.58619E-01 2.01361E-02
 -1       170 1.16992E+00 1.53097E-01-2.04210E-02
 -1       172 1.16992E+00 1.53097E-01 2.04210E-02
 -1       173 1.17847E+00 2.54763E-01-2.05702E-02
 -1       175 1.17847E+00 2.54763E-01 2.05702E-02
 -1       176 1.16168E+00 2.52049E-01-2.02771E-02
 -1       177 1.16185E+00 2.52049E-01 7.11430E-17
 -1       178 1.16168E+00 2.52049E-01 2.02771E-02
 -1       179 1.14637E+00 2.49321E-01-2.00100E-02
 -1       181 1.14637E+00 2.49321E-01 2.00100E-02
 -1       182 1.17796E+00 1.86654E-01-2.05614E-02
 -1       184 1.17796E+00 1.86654E-01 2.05614E-02
 -1       185 1.16162E+00 1.89453E-01-2.02762E-02
 -1       186 1.16180E+00 1.89453E-01 7.11396E-17
 -1       187 1.16162E+00 1.89453E-01 2.02762E-02
 -1       188 1.14668E+00 1.92094E-01-2.00154E-02
 -1       190 1.14668E+00 1.92094E-01 2.00154E-02
 -1       191 1.15832E+00 1.73942E-01-2.02186E-02
 -1       193 1.15832E+00 1.73942E-01 2.02186E-02
 -1       194 1.16370E+00 2.36311E-01-2.03125E-02
 -1       196 1.16370E+00 2.36311E-01 2.03125E-02
 -1       197 1.16432E+00 2.20586E-01-2.03233E-02
 -1       198 1.16450E+00 2.20586E-01 7.13050E-17
 -1       199 1.16432E+00 2.20586E-01 2.03233E-02
 -1       200 1.16364E+00 2.04979E-01-2.03114E-02
 -1       202 1.16364E+00 2.04979E-01 2.03114E-02
 -1       203 1.18081E+00 2.20602E-01-2.06112E-02
 -1       205 1.18081E+00 2.20602E-01 2.06112E-02
 -1       206 1.14922E+00 2.20556E-01-2.00597E-02
 -1       208 1.14922E+00 2.20556E-01 2.00597E-02
 -1       209 1.20698E+00 3.99917E-01-2.10679E-02
 -1       210 1.20717E+00 3.99917E-01 7.39176E-17
 -1       211 1.20698E+00 3.99917E-01 2.10679E-02
 -1       212 1.19618E+00 3.95693E-01-2.08794E-02
 -1       214 1.19618E+00 3.95693E-01 2.08794E-02
 -1       215 1.18570E+00 3.91452E-01-2.06964E-02
 -1       216 1.18588E+00 3.91452E-01 7.26140E-17
 -1       217 1.18570E+00 3.91452E-01 2.06964E-02
 -1       218 1.17555E+00 3.87173E-01-2.05193E-02
 -1       220 1.17555E+00 3.87173E-01 2.05193E-02
 -1       221 1.16573E+00 3.82847E-01-2.03479E-02
 -1       222 1.16591E+00 3.82847E-01 7.13911E-17
 -1       223 1.16573E+00 3.82847E-01 2.03479E-02
 -1       224 1.17805E+00 3.51533E-01-2.05630E-02
 -1       226 1.17805E+00 3.51533E-01 2.05630E-02
 -1       227 1.18690E+00 3.20354E-01-2.07174E-02
 -1       228 1.18708E+00 3.20354E-01 7.26877E-17
 -1       229 1.18690E+00 3.20354E-01 2.07174E-02
 -1       230 1.19294E+00 2.88982E-01-2.08229E-02
 -1       232 1.19294E+00 2.88982E-01 2.08229E-02
 -1       233 1.18384E+00 1.28620E-01-2.06640E-02
 -1       235 1.18384E+00 1.28620E-01 2.06640E-02
 -1       236 1.18033E+00 1.10043E-01-2.06028E-02
 -1       237 1.18051E+00 1.10043E-01 7.22855E-17
 -1       238 1.18033E+00 1.10043E-01 2.06028E-02
 -1       239 1.17736E+00 9.15897E-02-2.05509E-02
 -1       241 1.17736E+00 9.15897E-02 2.05509E-02
 -1       242 1.17485E+00 7.31756E-02-2.05071E-02
 -1       243 1.17503E+00 7.31756E-02 7.19499E-17
 -1       244 1.17485E+00 7.31756E-02 2.05071E-02
 -1       245 1.17289E+00 5.47893E-02-2.04729E-02
 -1       247 1.17289E+00 5.47893E-02 2.04729E-02
 -1       248 1.17150E+00 3.64519E-02-2.04486E-02
 -1       249 1.17168E+00 3.64519E-02 7.17447E-17
 -1       250 1.17150E+00 3.64519E-02 2.04486E-02
 -1       251 1.17069E+00 1.81829E-02-2.04345E-02
 -1       253 1.17069E+00 1.81829E-02 2.04345E-02
 -1       254 1.17045E+00 0.00000E+00-2.04304E-02
 -1       255 1.17063E+00 0.00000E+00 7.16806E-17
 -1       256 1.17045E+00 0.00000E+00 2.04304E-02
 -1       257 1.17904E+00 0.00000E+00-2.05802E-02
 -1       259 1.17904E+00 0.00000E+00 2.05802E-02
 -1       260 1.18816E+00 0.00000E+00-2.07394E-02
 -1       261 1.18834E+00 0.00000E+00 7.27648E-17
 -1       262 1.18816E+00 0.00000E+00 2.07394E-02
 -1       263 1.19781E+00 0.00000E+00-2.09079E-02
 -1       265 1.19781E+00 0.00000E+00 2.09079E-02
 -1       266 1.20800E+00 0.00000E+00-2.10857E-02
 -1       267 1.20818E+00 0.00000E+00 7.39798E-17
 -1       268 1.20800E+00 0.00000E+00 2.10857E-02
 -1       269 1.20836E+00 1.69173E-02-2.10920E-02
 -1       271 1.20836E+00 1.69173E-02 2.10920E-02
 -1       272 1.20934E+00 3.39388E-02-2.11092E-02
 -1       273 1.20953E+00 3.39388E-02 7.40623E-17
 -1       274 1.20934E+00 3.39388E-02 2.11092E-02
 -1       275 1.21090E+00 5.10614E-02-2.11363E-02
 -1       277 1.21090E+00 5.10614E-02 2.11363E-02
 -1       278 1.21301E+00 6.82808E-02-2.11731E-02
 -1       279 1.21319E+00 6.82808E-02 7.42866E-17
 -1       280 1.21301E+00 6.82808E-02 2.11731E-02
 -1       281 1.21566E+00 8.56077E-02-2.12194E-02
 -1       283 1.21566E+00 8.56077E-02 2.12194E-02
 -1       284 1.21878E+00 1.03029E-01-2.12738E-02
 -1       285 1.21896E+00 1.03029E-01 7.46398E-17
 -1       286 1.21878E+00 1.03029E-01 2.12738E-02
 -1       287 1.22242E+00 1.20422E-01-2.13374E-02
 -1       289 1.22242E+00 1.20422E-01 2.13374E-02
 -1       290 1.22653E+00 1.37990E-01-2.14092E-02
 -1       291 1.22672E+00 1.37990E-01 7.51150E-17
 -1       292 1.22653E+00 1.37990E-01 2.14092E-02
 -1       293 1.23143E+00 1.58125E-01-2.14947E-02
 -1       295 1.23143E+00 1.58125E-01 2.14947E-02
 -1       296 1.23503E+00 1.78505E-01-2.15576E-02
 -1       297 1.23522E+00 1.78505E-01 7.56355E-17
 -1       298 1.23503E+00 1.78505E-01 2.15576E-02