
                        S T E P       1


                                INCREMENT     4


 displacements (vx,vy,vz) for set N1 and time  0.1000000E+01

       100  8.992435E+00 -9.999599E+00  2.375142E-15
