
                        S T E P       1


                                INCREMENT     1


 displacements (vx,vy,vz) for set NOUT and time  0.1000000E+01

         1  4.967505E-07 -1.198815E-06  0.000000E+00
         4  4.967505E-07 -1.198815E-06  0.000000E+00
         5  4.903083E-07 -1.110124E-06  0.000000E+00
         8  4.903083E-07 -1.110124E-06  0.000000E+00
         9  4.767850E-07 -1.040067E-06  0.000000E+00
        12  4.767850E-07 -1.040067E-06  0.000000E+00
        13  4.618418E-07 -9.803832E-07  0.000000E+00
        16  4.618418E-07 -9.803832E-07  0.000000E+00
        17  4.464651E-07 -9.277598E-07  0.000000E+00
        20  4.464651E-07 -9.277598E-07  0.000000E+00
        21  4.308560E-07 -8.804085E-07  0.000000E+00
        24  4.308560E-07 -8.804085E-07  0.000000E+00
        25  4.150676E-07 -8.372832E-07  0.000000E+00
        28  4.150676E-07 -8.372832E-07  0.000000E+00
        29  3.991145E-07 -7.976981E-07  0.000000E+00
        32  3.991145E-07 -7.976981E-07  0.000000E+00
        33  3.830003E-07 -7.611752E-07  0.000000E+00
        36  3.830003E-07 -7.611752E-07  0.000000E+00
        37  3.667260E-07 -7.273654E-07  0.000000E+00
        40  3.667260E-07 -7.273654E-07  0.000000E+00
        41  3.502919E-07 -6.960048E-07  0.000000E+00
        44  3.502919E-07 -6.960048E-07  0.000000E+00
        45  3.336995E-07 -6.668896E-07  0.000000E+00
        48  3.336995E-07 -6.668896E-07  0.000000E+00
        49  3.169514E-07 -6.398586E-07  0.000000E+00
        52  3.169514E-07 -6.398586E-07  0.000000E+00
        53  3.000514E-07 -6.147832E-07  0.000000E+00
        56  3.000514E-07 -6.147832E-07  0.000000E+00
        57  2.830042E-07 -5.915594E-07  0.000000E+00
        60  2.830042E-07 -5.915594E-07  0.000000E+00
        61  2.658157E-07 -5.701030E-07  0.000000E+00
        64  2.658157E-07 -5.701030E-07  0.000000E+00
        65  2.484925E-07 -5.503466E-07  0.000000E+00
        68  2.484925E-07 -5.503466E-07  0.000000E+00
        69  2.310419E-07 -5.322370E-07  0.000000E+00
        72  2.310419E-07 -5.322370E-07  0.000000E+00
        73  2.134719E-07 -5.157371E-07  0.000000E+00
        76  2.134719E-07 -5.157371E-07  0.000000E+00
        77  1.957931E-07 -5.008273E-07  0.000000E+00
        80  1.957931E-07 -5.008273E-07  0.000000E+00
        81  1.780371E-07 -4.875585E-07  0.000000E+00
        84  1.780371E-07 -4.875585E-07  0.000000E+00
        85  1.602519E-07 -4.758684E-07  0.000000E+00
        88  1.602519E-07 -4.758684E-07  0.000000E+00
        89  1.424619E-07 -4.655910E-07  0.000000E+00
        92  1.424619E-07 -4.655910E-07  0.000000E+00
        93  1.246681E-07 -4.566488E-07  0.000000E+00
        96  1.246681E-07 -4.566488E-07  0.000000E+00
        97  1.068698E-07 -4.489860E-07  0.000000E+00
       100  1.068698E-07 -4.489860E-07  0.000000E+00
       101  8.906696E-08 -4.425613E-07  0.000000E+00
       104  8.906696E-08 -4.425613E-07  0.000000E+00
       105  7.125963E-08 -4.373433E-07  0.000000E+00
       108  7.125963E-08 -4.373433E-07  0.000000E+00
       109  5.344841E-08 -4.333079E-07  0.000000E+00
       112  5.344841E-08 -4.333079E-07  0.000000E+00
       113  3.563408E-08 -4.304376E-07  0.000000E+00
       116  3.563408E-08 -4.304376E-07  0.000000E+00
       117  1.781759E-08 -4.287202E-07  0.000000E+00
       120  1.781759E-08 -4.287202E-07  0.000000E+00
       121 -8.024251E-21 -4.281485E-07  0.000000E+00
       124  7.133673E-22 -4.281485E-07  0.000000E+00
       125 -1.781759E-08 -4.287202E-07  0.000000E+00
       128 -1.781759E-08 -4.287202E-07  0.000000E+00
       129 -3.563408E-08 -4.304376E-07  0.000000E+00
       132 -3.563408E-08 -4.304376E-07  0.000000E+00
       133 -5.344841E-08 -4.333079E-07  0.000000E+00
       136 -5.344841E-08 -4.333079E-07  0.000000E+00
       137 -7.125963E-08 -4.373433E-07  0.000000E+00
       140 -7.125963E-08 -4.373433E-07  0.000000E+00
       141 -8.906696E-08 -4.425613E-07  0.000000E+00
       144 -8.906696E-08 -4.425613E-07  0.000000E+00
       145 -1.068698E-07 -4.489860E-07  0.000000E+00
       148 -1.068698E-07 -4.489860E-07  0.000000E+00
       149 -1.246681E-07 -4.566488E-07  0.000000E+00
       152 -1.246681E-07 -4.566488E-07  0.000000E+00
       153 -1.424619E-07 -4.655910E-07  0.000000E+00
       156 -1.424619E-07 -4.655910E-07  0.000000E+00
       157 -1.602519E-07 -4.758684E-07  0.000000E+00
       160 -1.602519E-07 -4.758684E-07  0.000000E+00
       161 -1.780371E-07 -4.875585E-07  0.000000E+00
       164 -1.780371E-07 -4.875585E-07  0.000000E+00
       165 -1.957931E-07 -5.008273E-07  0.000000E+00
       168 -1.957931E-07 -5.008273E-07  0.000000E+00
       169 -2.134719E-07 -5.157371E-07  0.000000E+00
       172 -2.134719E-07 -5.157371E-07  0.000000E+00
       173 -2.310419E-07 -5.322370E-07  0.000000E+00
       176 -2.310419E-07 -5.322370E-07  0.000000E+00
       177 -2.484925E-07 -5.503466E-07  0.000000E+00
       180 -2.484925E-07 -5.503466E-07  0.000000E+00
       181 -2.658157E-07 -5.701030E-07  0.000000E+00
       184 -2.658157E-07 -5.701030E-07  0.000000E+00
       185 -2.830042E-07 -5.915594E-07  0.000000E+00
       188 -2.830042E-07 -5.915594E-07  0.000000E+00
       189 -3.000514E-07 -6.147832E-07  0.000000E+00
       192 -3.000514E-07 -6.147832E-07  0.000000E+00
       193 -3.169514E-07 -6.398586E-07  0.000000E+00
       196 -3.169514E-07 -6.398586E-07  0.000000E+00
       197 -3.336995E-07 -6.668896E-07  0.000000E+00
       200 -3.336995E-07 -6.668896E-07  0.000000E+00
       201 -3.502919E-07 -6.960048E-07  0.000000E+00
       204 -3.502919E-07 -6.960048E-07  0.000000E+00
       205 -3.667260E-07 -7.273654E-07  0.000000E+00
       208 -3.667260E-07 -7.273654E-07  0.000000E+00
       209 -3.830003E-07 -7.611752E-07  0.000000E+00
       212 -3.830003E-07 -7.611752E-07  0.000000E+00
       213 -3.991145E-07 -7.976981E-07  0.000000E+00
       216 -3.991145E-07 -7.976981E-07  0.000000E+00
       217 -4.150676E-07 -8.372832E-07  0.000000E+00
       220 -4.150676E-07 -8.372832E-07  0.000000E+00
       221 -4.308560E-07 -8.804085E-07  0.000000E+00
       224 -4.308560E-07 -8.804085E-07  0.000000E+00
       225 -4.464651E-07 -9.277598E-07  0.000000E+00
       228 -4.464651E-07 -9.277598E-07  0.000000E+00
       229 -4.618418E-07 -9.803832E-07  0.000000E+00
       232 -4.618418E-07 -9.803832E-07  0.000000E+00
       233 -4.767850E-07 -1.040067E-06  0.000000E+00
       236 -4.767850E-07 -1.040067E-06  0.000000E+00
       237 -4.903083E-07 -1.110124E-06  0.000000E+00
       240 -4.903083E-07 -1.110124E-06  0.000000E+00
       241 -4.967505E-07 -1.198815E-06  0.000000E+00
       244 -4.967505E-07 -1.198815E-06  0.000000E+00
     17383  2.122795E-10 -4.977114E-07  0.000000E+00
     17384  2.122795E-10 -4.977114E-07  0.000000E+00
     17385  2.123217E-10 -4.975916E-07  0.000000E+00
     17386  2.123217E-10 -4.975916E-07  0.000000E+00
     17387  2.121080E-10 -4.974730E-07  0.000000E+00
     17388  2.121080E-10 -4.974730E-07  0.000000E+00
     17389  2.107946E-10 -4.973557E-07  0.000000E+00
     17390  2.107946E-10 -4.973557E-07  0.000000E+00
     17391  2.076483E-10 -4.972393E-07  0.000000E+00
     17392  2.076483E-10 -4.972393E-07  0.000000E+00
     17393  2.021509E-10 -4.971230E-07  0.000000E+00
     17394  2.021509E-10 -4.971230E-07  0.000000E+00
     17395  1.939652E-10 -4.970060E-07  0.000000E+00
     17396  1.939652E-10 -4.970060E-07  0.000000E+00
     17397  1.828923E-10 -4.968872E-07  0.000000E+00
     17398  1.828923E-10 -4.968872E-07  0.000000E+00
     17399  1.688340E-10 -4.967657E-07  0.000000E+00
     17400  1.688340E-10 -4.967657E-07  0.000000E+00
     17401  1.517639E-10 -4.966405E-07  0.000000E+00
     17402  1.517639E-10 -4.966405E-07  0.000000E+00
     17403  1.317077E-10 -4.965104E-07  0.000000E+00
     17404  1.317077E-10 -4.965104E-07  0.000000E+00
     17405  1.087274E-10 -4.963744E-07  0.000000E+00
     17406  1.087274E-10 -4.963744E-07  0.000000E+00
     17407  8.291051E-11 -4.962313E-07  0.000000E+00
     17408  8.291051E-11 -4.962313E-07  0.000000E+00
     17409  5.436224E-11 -4.960800E-07  0.000000E+00
     17410  5.436224E-11 -4.960800E-07  0.000000E+00
     17411  2.319957E-11 -4.959189E-07  0.000000E+00
     17412  2.319957E-11 -4.959189E-07  0.000000E+00
     17413 -1.045293E-11 -4.957466E-07  0.000000E+00
     17414 -1.045293E-11 -4.957466E-07  0.000000E+00
     17415 -4.646604E-11 -4.955613E-07  0.000000E+00
     17416 -4.646604E-11 -4.955613E-07  0.000000E+00
     17417 -8.470782E-11 -4.953607E-07  0.000000E+00
     17418 -8.470782E-11 -4.953607E-07  0.000000E+00
     17419 -1.250424E-10 -4.951423E-07  0.000000E+00
     17420 -1.250424E-10 -4.951423E-07  0.000000E+00
     17421 -1.673282E-10 -4.949025E-07  0.000000E+00
     17422 -1.673282E-10 -4.949025E-07  0.000000E+00
     17423 -2.113536E-10 -4.946365E-07  0.000000E+00
     17424 -2.113536E-10 -4.946365E-07  0.000000E+00
     17425 -2.568896E-10 -4.943371E-07  0.000000E+00
     17426 -2.568896E-10 -4.943371E-07  0.000000E+00
     17427 -3.015456E-10 -4.939954E-07  0.000000E+00
     17428 -3.015456E-10 -4.939954E-07  0.000000E+00
     17429 -3.413324E-10 -4.935640E-07  0.000000E+00
     17430 -3.413324E-10 -4.935640E-07  0.000000E+00
     17431 -3.721838E-10 -4.930523E-07  0.000000E+00
     17432 -3.721838E-10 -4.930523E-07  0.000000E+00
     17433 -3.902598E-10 -4.925075E-07  0.000000E+00
     17434 -3.902598E-10 -4.925075E-07  0.000000E+00
     17435 -3.939778E-10 -4.919684E-07  0.000000E+00
     17436 -3.939778E-10 -4.919684E-07  0.000000E+00
     17437 -3.839624E-10 -4.914530E-07  0.000000E+00
     17438 -3.839624E-10 -4.914530E-07  0.000000E+00
     17439 -3.617971E-10 -4.909739E-07  0.000000E+00
     17440 -3.617971E-10 -4.909739E-07  0.000000E+00
     17441 -3.291222E-10 -4.905435E-07  0.000000E+00
     17442 -3.291222E-10 -4.905435E-07  0.000000E+00
     17443 -2.875413E-10 -4.901701E-07  0.000000E+00
     17444 -2.875413E-10 -4.901701E-07  0.000000E+00
     17445 -2.386743E-10 -4.898578E-07  0.000000E+00
     17446 -2.386743E-10 -4.898578E-07  0.000000E+00
     17447 -1.840607E-10 -4.896106E-07  0.000000E+00
     17448 -1.840607E-10 -4.896106E-07  0.000000E+00
     17449 -1.251274E-10 -4.894314E-07  0.000000E+00
     17450 -1.251274E-10 -4.894314E-07  0.000000E+00
     17451 -6.329032E-11 -4.893226E-07  0.000000E+00
     17452 -6.329032E-11 -4.893226E-07  0.000000E+00
     17453 -8.580456E-22 -4.892860E-07  0.000000E+00
     17454 -8.213893E-22 -4.892860E-07  0.000000E+00
     17455  6.329032E-11 -4.893226E-07  0.000000E+00
     17456  6.329032E-11 -4.893226E-07  0.000000E+00
     17457  1.251274E-10 -4.894314E-07  0.000000E+00
     17458  1.251274E-10 -4.894314E-07  0.000000E+00
     17459  1.840607E-10 -4.896106E-07  0.000000E+00
     17460  1.840607E-10 -4.896106E-07  0.000000E+00
     17461  2.386743E-10 -4.898578E-07  0.000000E+00
     17462  2.386743E-10 -4.898578E-07  0.000000E+00
     17463  2.875413E-10 -4.901701E-07  0.000000E+00
     17464  2.875413E-10 -4.901701E-07  0.000000E+00
     17465  3.291222E-10 -4.905435E-07  0.000000E+00
     17466  3.291222E-10 -4.905435E-07  0.000000E+00
     17467  3.617971E-10 -4.909739E-07  0.000000E+00
     17468  3.617971E-10 -4.909739E-07  0.000000E+00
     17469  3.839624E-10 -4.914530E-07  0.000000E+00
     17470  3.839624E-10 -4.914530E-07  0.000000E+00
     17471  3.939778E-10 -4.919684E-07  0.000000E+00
     17472  3.939778E-10 -4.919684E-07  0.000000E+00
     17473  3.902598E-10 -4.925075E-07  0.000000E+00
     17474  3.902598E-10 -4.925075E-07  0.000000E+00
     17475  3.721838E-10 -4.930523E-07  0.000000E+00
     17476  3.721838E-10 -4.930523E-07  0.000000E+00
     17477  3.413324E-10 -4.935640E-07  0.000000E+00
     17478  3.413324E-10 -4.935640E-07  0.000000E+00
     17479  3.015456E-10 -4.939954E-07  0.000000E+00
     17480  3.015456E-10 -4.939954E-07  0.000000E+00
     17481  2.568896E-10 -4.943371E-07  0.000000E+00
     17482  2.568896E-10 -4.943371E-07  0.000000E+00
     17483  2.113536E-10 -4.946365E-07  0.000000E+00
     17484  2.113536E-10 -4.946365E-07  0.000000E+00
     17485  1.673282E-10 -4.949025E-07  0.000000E+00
     17486  1.673282E-10 -4.949025E-07  0.000000E+00
     17487  1.250424E-10 -4.951423E-07  0.000000E+00
     17488  1.250424E-10 -4.951423E-07  0.000000E+00
     17489  8.470782E-11 -4.953607E-07  0.000000E+00
     17490  8.470782E-11 -4.953607E-07  0.000000E+00
     17491  4.646604E-11 -4.955613E-07  0.000000E+00
     17492  4.646604E-11 -4.955613E-07  0.000000E+00
     17493  1.045293E-11 -4.957466E-07  0.000000E+00
     17494  1.045293E-11 -4.957466E-07  0.000000E+00
     17495 -2.319957E-11 -4.959189E-07  0.000000E+00
     17496 -2.319957E-11 -4.959189E-07  0.000000E+00
     17497 -5.436224E-11 -4.960800E-07  0.000000E+00
     17498 -5.436224E-11 -4.960800E-07  0.000000E+00
     17499 -8.291051E-11 -4.962313E-07  0.000000E+00
     17500 -8.291051E-11 -4.962313E-07  0.000000E+00
     17501 -1.087274E-10 -4.963744E-07  0.000000E+00
     17502 -1.087274E-10 -4.963744E-07  0.000000E+00
     17503 -1.317077E-10 -4.965104E-07  0.000000E+00
     17504 -1.317077E-10 -4.965104E-07  0.000000E+00
     17505 -1.517639E-10 -4.966405E-07  0.000000E+00
     17506 -1.517639E-10 -4.966405E-07  0.000000E+00
     17507 -1.688340E-10 -4.967657E-07  0.000000E+00
     17508 -1.688340E-10 -4.967657E-07  0.000000E+00
     17509 -1.828923E-10 -4.968872E-07  0.000000E+00
     17510 -1.828923E-10 -4.968872E-07  0.000000E+00
     17511 -1.939652E-10 -4.970060E-07  0.000000E+00
     17512 -1.939652E-10 -4.970060E-07  0.000000E+00
     17513 -2.021509E-10 -4.971230E-07  0.000000E+00
     17514 -2.021509E-10 -4.971230E-07  0.000000E+00
     17515 -2.076483E-10 -4.972393E-07  0.000000E+00
     17516 -2.076483E-10 -4.972393E-07  0.000000E+00
     17517 -2.107946E-10 -4.973557E-07  0.000000E+00
     17518 -2.107946E-10 -4.973557E-07  0.000000E+00
     17519 -2.121080E-10 -4.974730E-07  0.000000E+00
     17520 -2.121080E-10 -4.974730E-07  0.000000E+00
     17521 -2.123217E-10 -4.975916E-07  0.000000E+00
     17522 -2.123217E-10 -4.975916E-07  0.000000E+00
     17523 -2.122795E-10 -4.977114E-07  0.000000E+00
     17524 -2.122795E-10 -4.977114E-07  0.000000E+00
