
                        S T E P       1


                                INCREMENT     1


 displacements (vx,vy,vz) for set NOUT and time  0.1000000E+01

         1  4.934934E-07 -1.205750E-06  0.000000E+00
         4  4.934934E-07 -1.205750E-06  0.000000E+00
         5  4.870514E-07 -1.117459E-06  0.000000E+00
         8  4.870514E-07 -1.117459E-06  0.000000E+00
         9  4.735270E-07 -1.047798E-06  0.000000E+00
        12  4.735270E-07 -1.047798E-06  0.000000E+00
        13  4.585782E-07 -9.885045E-07  0.000000E+00
        16  4.585782E-07 -9.885045E-07  0.000000E+00
        17  4.431885E-07 -9.362695E-07  0.000000E+00
        20  4.431885E-07 -9.362695E-07  0.000000E+00
        21  4.275573E-07 -8.893075E-07  0.000000E+00
        24  4.275573E-07 -8.893075E-07  0.000000E+00
        25  4.117366E-07 -8.465760E-07  0.000000E+00
        28  4.117366E-07 -8.465760E-07  0.000000E+00
        29  3.957404E-07 -8.073932E-07  0.000000E+00
        32  3.957404E-07 -8.073932E-07  0.000000E+00
        33  3.795725E-07 -7.712852E-07  0.000000E+00
        36  3.795725E-07 -7.712852E-07  0.000000E+00
        37  3.632336E-07 -7.379068E-07  0.000000E+00
        40  3.632336E-07 -7.379068E-07  0.000000E+00
        41  3.467245E-07 -7.069984E-07  0.000000E+00
        44  3.467245E-07 -7.069984E-07  0.000000E+00
        45  3.300472E-07 -6.783602E-07  0.000000E+00
        48  3.300472E-07 -6.783602E-07  0.000000E+00
        49  3.132047E-07 -6.518357E-07  0.000000E+00
        52  3.132047E-07 -6.518357E-07  0.000000E+00
        53  2.962012E-07 -6.273011E-07  0.000000E+00
        56  2.962012E-07 -6.273011E-07  0.000000E+00
        57  2.790421E-07 -6.046575E-07  0.000000E+00
        60  2.790421E-07 -6.046575E-07  0.000000E+00
        61  2.617338E-07 -5.838267E-07  0.000000E+00
        64  2.617338E-07 -5.838267E-07  0.000000E+00
        65  2.442835E-07 -5.647473E-07  0.000000E+00
        68  2.442835E-07 -5.647473E-07  0.000000E+00
        69  2.266991E-07 -5.473733E-07  0.000000E+00
        72  2.266991E-07 -5.473733E-07  0.000000E+00
        73  2.089888E-07 -5.316731E-07  0.000000E+00
        76  2.089888E-07 -5.316731E-07  0.000000E+00
        77  1.911616E-07 -5.176306E-07  0.000000E+00
        80  1.911616E-07 -5.176306E-07  0.000000E+00
        81  1.732266E-07 -5.052487E-07  0.000000E+00
        84  1.732266E-07 -5.052487E-07  0.000000E+00
        85  1.551937E-07 -4.945571E-07  0.000000E+00
        88  1.551937E-07 -4.945571E-07  0.000000E+00
        89  1.370740E-07 -4.856456E-07  0.000000E+00
        92  1.370740E-07 -4.856456E-07  0.000000E+00
        93  1.189119E-07 -4.786743E-07  0.000000E+00
        96  1.189119E-07 -4.786743E-07  0.000000E+00
        97  1.010261E-07 -4.746606E-07  0.000000E+00
       100  1.010261E-07 -4.746606E-07  0.000000E+00
       101  8.364950E-08 -4.717686E-07  0.000000E+00
       104  8.364950E-08 -4.717686E-07  0.000000E+00
       105  6.663463E-08 -4.694312E-07  0.000000E+00
       108  6.663463E-08 -4.694312E-07  0.000000E+00
       109  4.983047E-08 -4.676191E-07  0.000000E+00
       112  4.983047E-08 -4.676191E-07  0.000000E+00
       113  3.315621E-08 -4.663277E-07  0.000000E+00
       116  3.315621E-08 -4.663277E-07  0.000000E+00
       117  1.655977E-08 -4.655540E-07  0.000000E+00
       120  1.655977E-08 -4.655540E-07  0.000000E+00
       121 -6.076425E-20 -4.652959E-07  0.000000E+00
       124  5.035671E-20 -4.652959E-07  0.000000E+00
       125 -1.655977E-08 -4.655540E-07  0.000000E+00
       128 -1.655977E-08 -4.655540E-07  0.000000E+00
       129 -3.315621E-08 -4.663277E-07  0.000000E+00
       132 -3.315621E-08 -4.663277E-07  0.000000E+00
       133 -4.983047E-08 -4.676191E-07  0.000000E+00
       136 -4.983047E-08 -4.676191E-07  0.000000E+00
       137 -6.663463E-08 -4.694312E-07  0.000000E+00
       140 -6.663463E-08 -4.694312E-07  0.000000E+00
       141 -8.364950E-08 -4.717686E-07  0.000000E+00
       144 -8.364950E-08 -4.717686E-07  0.000000E+00
       145 -1.010261E-07 -4.746606E-07  0.000000E+00
       148 -1.010261E-07 -4.746606E-07  0.000000E+00
       149 -1.189119E-07 -4.786743E-07  0.000000E+00
       152 -1.189119E-07 -4.786743E-07  0.000000E+00
       153 -1.370740E-07 -4.856456E-07  0.000000E+00
       156 -1.370740E-07 -4.856456E-07  0.000000E+00
       157 -1.551937E-07 -4.945571E-07  0.000000E+00
       160 -1.551937E-07 -4.945571E-07  0.000000E+00
       161 -1.732266E-07 -5.052487E-07  0.000000E+00
       164 -1.732266E-07 -5.052487E-07  0.000000E+00
       165 -1.911616E-07 -5.176306E-07  0.000000E+00
       168 -1.911616E-07 -5.176306E-07  0.000000E+00
       169 -2.089888E-07 -5.316731E-07  0.000000E+00
       172 -2.089888E-07 -5.316731E-07  0.000000E+00
       173 -2.266991E-07 -5.473733E-07  0.000000E+00
       176 -2.266991E-07 -5.473733E-07  0.000000E+00
       177 -2.442835E-07 -5.647473E-07  0.000000E+00
       180 -2.442835E-07 -5.647473E-07  0.000000E+00
       181 -2.617338E-07 -5.838267E-07  0.000000E+00
       184 -2.617338E-07 -5.838267E-07  0.000000E+00
       185 -2.790421E-07 -6.046575E-07  0.000000E+00
       188 -2.790421E-07 -6.046575E-07  0.000000E+00
       189 -2.962012E-07 -6.273011E-07  0.000000E+00
       192 -2.962012E-07 -6.273011E-07  0.000000E+00
       193 -3.132047E-07 -6.518357E-07  0.000000E+00
       196 -3.132047E-07 -6.518357E-07  0.000000E+00
       197 -3.300472E-07 -6.783602E-07  0.000000E+00
       200 -3.300472E-07 -6.783602E-07  0.000000E+00
       201 -3.467245E-07 -7.069984E-07  0.000000E+00
       204 -3.467245E-07 -7.069984E-07  0.000000E+00
       205 -3.632336E-07 -7.379068E-07  0.000000E+00
       208 -3.632336E-07 -7.379068E-07  0.000000E+00
       209 -3.795725E-07 -7.712852E-07  0.000000E+00
       212 -3.795725E-07 -7.712852E-07  0.000000E+00
       213 -3.957404E-07 -8.073932E-07  0.000000E+00
       216 -3.957404E-07 -8.073932E-07  0.000000E+00
       217 -4.117366E-07 -8.465760E-07  0.000000E+00
       220 -4.117366E-07 -8.465760E-07  0.000000E+00
       221 -4.275573E-07 -8.893075E-07  0.000000E+00
       224 -4.275573E-07 -8.893075E-07  0.000000E+00
       225 -4.431885E-07 -9.362695E-07  0.000000E+00
       228 -4.431885E-07 -9.362695E-07  0.000000E+00
       229 -4.585782E-07 -9.885045E-07  0.000000E+00
       232 -4.585782E-07 -9.885045E-07  0.000000E+00
       233 -4.735270E-07 -1.047798E-06  0.000000E+00
       236 -4.735270E-07 -1.047798E-06  0.000000E+00
       237 -4.870514E-07 -1.117459E-06  0.000000E+00
       240 -4.870514E-07 -1.117459E-06  0.000000E+00
       241 -4.934934E-07 -1.205750E-06  0.000000E+00
       244 -4.934934E-07 -1.205750E-06  0.000000E+00
     17383  5.138080E-10 -4.936684E-07  0.000000E+00
     17384  5.138080E-10 -4.936684E-07  0.000000E+00
     17385  5.139504E-10 -4.933271E-07  0.000000E+00
     17386  5.139504E-10 -4.933271E-07  0.000000E+00
     17387  5.135020E-10 -4.929888E-07  0.000000E+00
     17388  5.135020E-10 -4.929888E-07  0.000000E+00
     17389  5.101999E-10 -4.926544E-07  0.000000E+00
     17390  5.101999E-10 -4.926544E-07  0.000000E+00
     17391  5.020182E-10 -4.923227E-07  0.000000E+00
     17392  5.020182E-10 -4.923227E-07  0.000000E+00
     17393  4.874881E-10 -4.919918E-07  0.000000E+00
     17394  4.874881E-10 -4.919918E-07  0.000000E+00
     17395  4.656281E-10 -4.916595E-07  0.000000E+00
     17396  4.656281E-10 -4.916595E-07  0.000000E+00
     17397  4.358354E-10 -4.913230E-07  0.000000E+00
     17398  4.358354E-10 -4.913230E-07  0.000000E+00
     17399  3.977882E-10 -4.909798E-07  0.000000E+00
     17400  3.977882E-10 -4.909798E-07  0.000000E+00
     17401  3.513702E-10 -4.906273E-07  0.000000E+00
     17402  3.513702E-10 -4.906273E-07  0.000000E+00
     17403  2.966142E-10 -4.902626E-07  0.000000E+00
     17404  2.966142E-10 -4.902626E-07  0.000000E+00
     17405  2.336609E-10 -4.898831E-07  0.000000E+00
     17406  2.336609E-10 -4.898831E-07  0.000000E+00
     17407  1.627276E-10 -4.894857E-07  0.000000E+00
     17408  1.627276E-10 -4.894857E-07  0.000000E+00
     17409  8.408623E-11 -4.890675E-07  0.000000E+00
     17410  8.408623E-11 -4.890675E-07  0.000000E+00
     17411 -1.953698E-12 -4.886251E-07  0.000000E+00
     17412 -1.953698E-12 -4.886251E-07  0.000000E+00
     17413 -9.505740E-11 -4.881549E-07  0.000000E+00
     17414 -9.505740E-11 -4.881549E-07  0.000000E+00
     17415 -1.948739E-10 -4.876531E-07  0.000000E+00
     17416 -1.948739E-10 -4.876531E-07  0.000000E+00
     17417 -3.010426E-10 -4.871150E-07  0.000000E+00
     17418 -3.010426E-10 -4.871150E-07  0.000000E+00
     17419 -4.131983E-10 -4.865354E-07  0.000000E+00
     17420 -4.131983E-10 -4.865354E-07  0.000000E+00
     17421 -5.309746E-10 -4.859081E-07  0.000000E+00
     17422 -5.309746E-10 -4.859081E-07  0.000000E+00
     17423 -6.540055E-10 -4.852253E-07  0.000000E+00
     17424 -6.540055E-10 -4.852253E-07  0.000000E+00
     17425 -7.819252E-10 -4.844777E-07  0.000000E+00
     17426 -7.819252E-10 -4.844777E-07  0.000000E+00
     17427 -9.143594E-10 -4.836527E-07  0.000000E+00
     17428 -9.143594E-10 -4.836527E-07  0.000000E+00
     17429 -1.050880E-09 -4.827339E-07  0.000000E+00
     17430 -1.050880E-09 -4.827339E-07  0.000000E+00
     17431 -1.190839E-09 -4.816973E-07  0.000000E+00
     17432 -1.190839E-09 -4.816973E-07  0.000000E+00
     17433 -1.332520E-09 -4.805067E-07  0.000000E+00
     17434 -1.332520E-09 -4.805067E-07  0.000000E+00
     17435 -1.469739E-09 -4.791022E-07  0.000000E+00
     17436 -1.469739E-09 -4.791022E-07  0.000000E+00
     17437 -1.562992E-09 -4.773488E-07  0.000000E+00
     17438 -1.562992E-09 -4.773488E-07  0.000000E+00
     17439 -1.588210E-09 -4.747449E-07  0.000000E+00
     17440 -1.588210E-09 -4.747449E-07  0.000000E+00
     17441 -1.530975E-09 -4.723031E-07  0.000000E+00
     17442 -1.530975E-09 -4.723031E-07  0.000000E+00
     17443 -1.380605E-09 -4.702403E-07  0.000000E+00
     17444 -1.380605E-09 -4.702403E-07  0.000000E+00
     17445 -1.165177E-09 -4.685518E-07  0.000000E+00
     17446 -1.165177E-09 -4.685518E-07  0.000000E+00
     17447 -9.066995E-10 -4.672389E-07  0.000000E+00
     17448 -9.066995E-10 -4.672389E-07  0.000000E+00
     17449 -6.193760E-10 -4.662999E-07  0.000000E+00
     17450 -6.193760E-10 -4.662999E-07  0.000000E+00
     17451 -3.140374E-10 -4.657349E-07  0.000000E+00
     17452 -3.140374E-10 -4.657349E-07  0.000000E+00
     17453  5.077894E-21 -4.655456E-07  0.000000E+00
     17454  7.442251E-21 -4.655456E-07  0.000000E+00
     17455  3.140374E-10 -4.657349E-07  0.000000E+00
     17456  3.140374E-10 -4.657349E-07  0.000000E+00
     17457  6.193760E-10 -4.662999E-07  0.000000E+00
     17458  6.193760E-10 -4.662999E-07  0.000000E+00
     17459  9.066995E-10 -4.672389E-07  0.000000E+00
     17460  9.066995E-10 -4.672389E-07  0.000000E+00
     17461  1.165177E-09 -4.685518E-07  0.000000E+00
     17462  1.165177E-09 -4.685518E-07  0.000000E+00
     17463  1.380605E-09 -4.702403E-07  0.000000E+00
     17464  1.380605E-09 -4.702403E-07  0.000000E+00
     17465  1.530975E-09 -4.723031E-07  0.000000E+00
     17466  1.530975E-09 -4.723031E-07  0.000000E+00
     17467  1.588210E-09 -4.747449E-07  0.000000E+00
     17468  1.588210E-09 -4.747449E-07  0.000000E+00
     17469  1.562992E-09 -4.773488E-07  0.000000E+00
     17470  1.562992E-09 -4.773488E-07  0.000000E+00
     17471  1.469739E-09 -4.791022E-07  0.000000E+00
     17472  1.469739E-09 -4.791022E-07  0.000000E+00
     17473  1.332520E-09 -4.805067E-07  0.000000E+00
     17474  1.332520E-09 -4.805067E-07  0.000000E+00
     17475  1.190839E-09 -4.816973E-07  0.000000E+00
     17476  1.190839E-09 -4.816973E-07  0.000000E+00
     17477  1.050880E-09 -4.827339E-07  0.000000E+00
     17478  1.050880E-09 -4.827339E-07  0.000000E+00
     17479  9.143594E-10 -4.836527E-07  0.000000E+00
     17480  9.143594E-10 -4.836527E-07  0.000000E+00
     17481  7.819252E-10 -4.844777E-07  0.000000E+00
     17482  7.819252E-10 -4.844777E-07  0.000000E+00
     17483  6.540055E-10 -4.852253E-07  0.000000E+00
     17484  6.540055E-10 -4.852253E-07  0.000000E+00
     17485  5.309746E-10 -4.859081E-07  0.000000E+00
     17486  5.309746E-10 -4.859081E-07  0.000000E+00
     17487  4.131983E-10 -4.865354E-07  0.000000E+00
     17488  4.131983E-10 -4.865354E-07  0.000000E+00
     17489  3.010426E-10 -4.871150E-07  0.000000E+00
     17490  3.010426E-10 -4.871150E-07  0.000000E+00
     17491  1.948739E-10 -4.876531E-07  0.000000E+00
     17492  1.948739E-10 -4.876531E-07  0.000000E+00
     17493  9.505740E-11 -4.881549E-07  0.000000E+00
     17494  9.505740E-11 -4.881549E-07  0.000000E+00
     17495  1.953698E-12 -4.886251E-07  0.000000E+00
     17496  1.953698E-12 -4.886251E-07  0.000000E+00
     17497 -8.408623E-11 -4.890675E-07  0.000000E+00
     17498 -8.408623E-11 -4.890675E-07  0.000000E+00
     17499 -1.627276E-10 -4.894857E-07  0.000000E+00
     17500 -1.627276E-10 -4.894857E-07  0.000000E+00
     17501 -2.336609E-10 -4.898831E-07  0.000000E+00
     17502 -2.336609E-10 -4.898831E-07  0.000000E+00
     17503 -2.966142E-10 -4.902626E-07  0.000000E+00
     17504 -2.966142E-10 -4.902626E-07  0.000000E+00
     17505 -3.513702E-10 -4.906273E-07  0.000000E+00
     17506 -3.513702E-10 -4.906273E-07  0.000000E+00
     17507 -3.977882E-10 -4.909798E-07  0.000000E+00
     17508 -3.977882E-10 -4.909798E-07  0.000000E+00
     17509 -4.358354E-10 -4.913230E-07  0.000000E+00
     17510 -4.358354E-10 -4.913230E-07  0.000000E+00
     17511 -4.656281E-10 -4.916595E-07  0.000000E+00
     17512 -4.656281E-10 -4.916595E-07  0.000000E+00
     17513 -4.874881E-10 -4.919918E-07  0.000000E+00
     17514 -4.874881E-10 -4.919918E-07  0.000000E+00
     17515 -5.020182E-10 -4.923227E-07  0.000000E+00
     17516 -5.020182E-10 -4.923227E-07  0.000000E+00
     17517 -5.101999E-10 -4.926544E-07  0.000000E+00
     17518 -5.101999E-10 -4.926544E-07  0.000000E+00
     17519 -5.135020E-10 -4.929888E-07  0.000000E+00
     17520 -5.135020E-10 -4.929888E-07  0.000000E+00
     17521 -5.139504E-10 -4.933271E-07  0.000000E+00
     17522 -5.139504E-10 -4.933271E-07  0.000000E+00
     17523 -5.138080E-10 -4.936684E-07  0.000000E+00
     17524 -5.138080E-10 -4.936684E-07  0.000000E+00
