
                        S T E P       1


                                INCREMENT     1


 displacements (vx,vy,vz) for set NOUT and time  0.1000000E+01

         1  1.351549E-06 -1.539498E-06  0.000000E+00
         4  1.351549E-06 -1.539498E-06  0.000000E+00
         5  1.345099E-06 -1.433510E-06  0.000000E+00
         8  1.345099E-06 -1.433510E-06  0.000000E+00
         9  1.331540E-06 -1.346159E-06  0.000000E+00
        12  1.331540E-06 -1.346159E-06  0.000000E+00
        13  1.316529E-06 -1.269236E-06  0.000000E+00
        16  1.316529E-06 -1.269236E-06  0.000000E+00
        17  1.301071E-06 -1.199478E-06  0.000000E+00
        20  1.301071E-06 -1.199478E-06  0.000000E+00
        21  1.285393E-06 -1.135128E-06  0.000000E+00
        24  1.285393E-06 -1.135128E-06  0.000000E+00
        25  1.269579E-06 -1.075161E-06  0.000000E+00
        28  1.269579E-06 -1.075161E-06  0.000000E+00
        29  1.253674E-06 -1.018904E-06  0.000000E+00
        32  1.253674E-06 -1.018904E-06  0.000000E+00
        33  1.237713E-06 -9.658795E-07  0.000000E+00
        36  1.237713E-06 -9.658795E-07  0.000000E+00
        37  1.221724E-06 -9.157357E-07  0.000000E+00
        40  1.221724E-06 -9.157357E-07  0.000000E+00
        41  1.205734E-06 -8.681991E-07  0.000000E+00
        44  1.205734E-06 -8.681991E-07  0.000000E+00
        45  1.189770E-06 -8.230518E-07  0.000000E+00
        48  1.189770E-06 -8.230518E-07  0.000000E+00
        49  1.173857E-06 -7.801148E-07  0.000000E+00
        52  1.173857E-06 -7.801148E-07  0.000000E+00
        53  1.158018E-06 -7.392381E-07  0.000000E+00
        56  1.158018E-06 -7.392381E-07  0.000000E+00
        57  1.142278E-06 -7.002934E-07  0.000000E+00
        60  1.142278E-06 -7.002934E-07  0.000000E+00
        61  1.126659E-06 -6.631688E-07  0.000000E+00
        64  1.126659E-06 -6.631688E-07  0.000000E+00
        65  1.111182E-06 -6.277659E-07  0.000000E+00
        68  1.111182E-06 -6.277659E-07  0.000000E+00
        69  1.095869E-06 -5.939966E-07  0.000000E+00
        72  1.095869E-06 -5.939966E-07  0.000000E+00
        73  1.080738E-06 -5.617815E-07  0.000000E+00
        76  1.080738E-06 -5.617815E-07  0.000000E+00
        77  1.065809E-06 -5.310482E-07  0.000000E+00
        80  1.065809E-06 -5.310482E-07  0.000000E+00
        81  1.051097E-06 -5.017303E-07  0.000000E+00
        84  1.051097E-06 -5.017303E-07  0.000000E+00
        85  1.036620E-06 -4.737667E-07  0.000000E+00
        88  1.036620E-06 -4.737667E-07  0.000000E+00
        89  1.022392E-06 -4.471008E-07  0.000000E+00
        92  1.022392E-06 -4.471008E-07  0.000000E+00
        93  1.008426E-06 -4.216802E-07  0.000000E+00
        96  1.008426E-06 -4.216802E-07  0.000000E+00
        97  9.947339E-07 -3.974565E-07  0.000000E+00
       100  9.947339E-07 -3.974565E-07  0.000000E+00
       101  9.813275E-07 -3.743850E-07  0.000000E+00
       104  9.813275E-07 -3.743850E-07  0.000000E+00
       105  9.682158E-07 -3.524247E-07  0.000000E+00
       108  9.682158E-07 -3.524247E-07  0.000000E+00
       109  9.554071E-07 -3.315386E-07  0.000000E+00
       112  9.554071E-07 -3.315386E-07  0.000000E+00
       113  9.429081E-07 -3.116939E-07  0.000000E+00
       116  9.429081E-07 -3.116939E-07  0.000000E+00
       117  9.307245E-07 -2.928629E-07  0.000000E+00
       120  9.307245E-07 -2.928629E-07  0.000000E+00
       121  9.188602E-07 -2.750236E-07  0.000000E+00
       124  9.188602E-07 -2.750236E-07  0.000000E+00
       125  9.073180E-07 -2.581620E-07  0.000000E+00
       128  9.073180E-07 -2.581620E-07  0.000000E+00
       129  8.960992E-07 -2.422746E-07  0.000000E+00
       132  8.960992E-07 -2.422746E-07  0.000000E+00
       133  8.852037E-07 -2.273769E-07  0.000000E+00
       136  8.852037E-07 -2.273769E-07  0.000000E+00
       137  8.746332E-07 -2.135095E-07  0.000000E+00
       140  8.746332E-07 -2.135095E-07  0.000000E+00
       141  8.644345E-07 -2.008843E-07  0.000000E+00
       144  8.644345E-07 -2.008843E-07  0.000000E+00
       145  8.547052E-07 -1.895019E-07  0.000000E+00
       148  8.547052E-07 -1.895019E-07  0.000000E+00
       149  8.455040E-07 -1.790581E-07  0.000000E+00
       152  8.455040E-07 -1.790581E-07  0.000000E+00
       153  8.368338E-07 -1.693974E-07  0.000000E+00
       156  8.368338E-07 -1.693974E-07  0.000000E+00
       157  8.286858E-07 -1.604033E-07  0.000000E+00
       160  8.286858E-07 -1.604033E-07  0.000000E+00
       161  8.210492E-07 -1.519862E-07  0.000000E+00
       164  8.210492E-07 -1.519862E-07  0.000000E+00
       165  8.139115E-07 -1.440693E-07  0.000000E+00
       168  8.139115E-07 -1.440693E-07  0.000000E+00
       169  8.072581E-07 -1.365794E-07  0.000000E+00
       172  8.072581E-07 -1.365794E-07  0.000000E+00
       173  8.010728E-07 -1.294647E-07  0.000000E+00
       176  8.010728E-07 -1.294647E-07  0.000000E+00
       177  7.953416E-07 -1.226788E-07  0.000000E+00
       180  7.953416E-07 -1.226788E-07  0.000000E+00
       181  7.900492E-07 -1.161633E-07  0.000000E+00
       184  7.900492E-07 -1.161633E-07  0.000000E+00
       185  7.851767E-07 -1.098668E-07  0.000000E+00
       188  7.851767E-07 -1.098668E-07  0.000000E+00
       189  7.807029E-07 -1.037409E-07  0.000000E+00
       192  7.807029E-07 -1.037409E-07  0.000000E+00
       193  7.766022E-07 -9.773321E-08  0.000000E+00
       196  7.766022E-07 -9.773321E-08  0.000000E+00
       197  7.728462E-07 -9.181260E-08  0.000000E+00
       200  7.728462E-07 -9.181260E-08  0.000000E+00
       201  7.694075E-07 -8.595236E-08  0.000000E+00
       204  7.694075E-07 -8.595236E-08  0.000000E+00
       205  7.662557E-07 -8.011008E-08  0.000000E+00
       208  7.662557E-07 -8.011008E-08  0.000000E+00
       209  7.633551E-07 -7.425230E-08  0.000000E+00
       212  7.633551E-07 -7.425230E-08  0.000000E+00
       213  7.606650E-07 -6.834998E-08  0.000000E+00
       216  7.606650E-07 -6.834998E-08  0.000000E+00
       217  7.581374E-07 -6.237198E-08  0.000000E+00
       220  7.581374E-07 -6.237198E-08  0.000000E+00
       221  7.557194E-07 -5.631928E-08  0.000000E+00
       224  7.557194E-07 -5.631928E-08  0.000000E+00
       225  7.533576E-07 -5.020737E-08  0.000000E+00
       228  7.533576E-07 -5.020737E-08  0.000000E+00
       229  7.509948E-07 -4.404154E-08  0.000000E+00
       232  7.509948E-07 -4.404154E-08  0.000000E+00
       233  7.485667E-07 -3.785844E-08  0.000000E+00
       236  7.485667E-07 -3.785844E-08  0.000000E+00
       237  7.460104E-07 -3.171658E-08  0.000000E+00
       240  7.460104E-07 -3.171658E-08  0.000000E+00
       241  7.432927E-07 -2.584585E-08  0.000000E+00
       244  7.432927E-07 -2.584585E-08  0.000000E+00
     17383  9.601606E-07  3.584554E-07  0.000000E+00
     17384  9.601606E-07  3.584554E-07  0.000000E+00
     17385  9.601558E-07  3.436936E-07  0.000000E+00
     17386  9.601558E-07  3.436936E-07  0.000000E+00
     17387  9.601313E-07  3.289253E-07  0.000000E+00
     17388  9.601313E-07  3.289253E-07  0.000000E+00
     17389  9.600790E-07  3.141811E-07  0.000000E+00
     17390  9.600790E-07  3.141811E-07  0.000000E+00
     17391  9.600037E-07  2.994934E-07  0.000000E+00
     17392  9.600037E-07  2.994934E-07  0.000000E+00
     17393  9.599179E-07  2.848887E-07  0.000000E+00
     17394  9.599179E-07  2.848887E-07  0.000000E+00
     17395  9.598376E-07  2.703871E-07  0.000000E+00
     17396  9.598376E-07  2.703871E-07  0.000000E+00
     17397  9.597807E-07  2.560031E-07  0.000000E+00
     17398  9.597807E-07  2.560031E-07  0.000000E+00
     17399  9.597653E-07  2.417462E-07  0.000000E+00
     17400  9.597653E-07  2.417462E-07  0.000000E+00
     17401  9.598097E-07  2.276216E-07  0.000000E+00
     17402  9.598097E-07  2.276216E-07  0.000000E+00
     17403  9.599315E-07  2.136312E-07  0.000000E+00
     17404  9.599315E-07  2.136312E-07  0.000000E+00
     17405  9.601476E-07  1.997736E-07  0.000000E+00
     17406  9.601476E-07  1.997736E-07  0.000000E+00
     17407  9.604743E-07  1.860450E-07  0.000000E+00
     17408  9.604743E-07  1.860450E-07  0.000000E+00
     17409  9.609265E-07  1.724395E-07  0.000000E+00
     17410  9.609265E-07  1.724395E-07  0.000000E+00
     17411  9.615187E-07  1.589490E-07  0.000000E+00
     17412  9.615187E-07  1.589490E-07  0.000000E+00
     17413  9.622640E-07  1.455640E-07  0.000000E+00
     17414  9.622640E-07  1.455640E-07  0.000000E+00
     17415  9.631747E-07  1.322738E-07  0.000000E+00
     17416  9.631747E-07  1.322738E-07  0.000000E+00
     17417  9.642624E-07  1.190661E-07  0.000000E+00
     17418  9.642624E-07  1.190661E-07  0.000000E+00
     17419  9.655375E-07  1.059278E-07  0.000000E+00
     17420  9.655375E-07  1.059278E-07  0.000000E+00
     17421  9.670095E-07  9.284497E-08  0.000000E+00
     17422  9.670095E-07  9.284497E-08  0.000000E+00
     17423  9.686872E-07  7.980267E-08  0.000000E+00
     17424  9.686872E-07  7.980267E-08  0.000000E+00
     17425  9.705783E-07  6.678547E-08  0.000000E+00
     17426  9.705783E-07  6.678547E-08  0.000000E+00
     17427  9.726900E-07  5.377735E-08  0.000000E+00
     17428  9.726900E-07  5.377735E-08  0.000000E+00
     17429  9.750284E-07  4.076181E-08  0.000000E+00
     17430  9.750284E-07  4.076181E-08  0.000000E+00
     17431  9.775988E-07  2.772196E-08  0.000000E+00
     17432  9.775988E-07  2.772196E-08  0.000000E+00
     17433  9.804060E-07  1.464063E-08  0.000000E+00
     17434  9.804060E-07  1.464063E-08  0.000000E+00
     17435  9.834536E-07  1.500433E-09  0.000000E+00
     17436  9.834536E-07  1.500433E-09  0.000000E+00
     17437  9.867449E-07 -1.171616E-08  0.000000E+00
     17438  9.867449E-07 -1.171616E-08  0.000000E+00
     17439  9.902820E-07 -2.502671E-08  0.000000E+00
     17440  9.902820E-07 -2.502671E-08  0.000000E+00
     17441  9.940665E-07 -3.844871E-08  0.000000E+00
     17442  9.940665E-07 -3.844871E-08  0.000000E+00
     17443  9.980993E-07 -5.199951E-08  0.000000E+00
     17444  9.980993E-07 -5.199951E-08  0.000000E+00
     17445  1.002380E-06 -6.569612E-08  0.000000E+00
     17446  1.002380E-06 -6.569612E-08  0.000000E+00
     17447  1.006909E-06 -7.955509E-08  0.000000E+00
     17448  1.006909E-06 -7.955509E-08  0.000000E+00
     17449  1.011684E-06 -9.359228E-08  0.000000E+00
     17450  1.011684E-06 -9.359228E-08  0.000000E+00
     17451  1.016704E-06 -1.078226E-07  0.000000E+00
     17452  1.016704E-06 -1.078226E-07  0.000000E+00
     17453  1.021964E-06 -1.222595E-07  0.000000E+00
     17454  1.021964E-06 -1.222595E-07  0.000000E+00
     17455  1.027463E-06 -1.369144E-07  0.000000E+00
     17456  1.027463E-06 -1.369144E-07  0.000000E+00
     17457  1.033194E-06 -1.517958E-07  0.000000E+00
     17458  1.033194E-06 -1.517958E-07  0.000000E+00
     17459  1.039155E-06 -1.669073E-07  0.000000E+00
     17460  1.039155E-06 -1.669073E-07  0.000000E+00
     17461  1.045339E-06 -1.822433E-07  0.000000E+00
     17462  1.045339E-06 -1.822433E-07  0.000000E+00
     17463  1.051748E-06 -1.977837E-07  0.000000E+00
     17464  1.051748E-06 -1.977837E-07  0.000000E+00
     17465  1.058386E-06 -2.134214E-07  0.000000E+00
     17466  1.058386E-06 -2.134214E-07  0.000000E+00
     17467  1.065256E-06 -2.292113E-07  0.000000E+00
     17468  1.065256E-06 -2.292113E-07  0.000000E+00
     17469  1.072360E-06 -2.453081E-07  0.000000E+00
     17470  1.072360E-06 -2.453081E-07  0.000000E+00
     17471  1.079695E-06 -2.617893E-07  0.000000E+00
     17472  1.079695E-06 -2.617893E-07  0.000000E+00
     17473  1.087250E-06 -2.787173E-07  0.000000E+00
     17474  1.087250E-06 -2.787173E-07  0.000000E+00
     17475  1.095015E-06 -2.961462E-07  0.000000E+00
     17476  1.095015E-06 -2.961462E-07  0.000000E+00
     17477  1.102978E-06 -3.141259E-07  0.000000E+00
     17478  1.102978E-06 -3.141259E-07  0.000000E+00
     17479  1.111125E-06 -3.327041E-07  0.000000E+00
     17480  1.111125E-06 -3.327041E-07  0.000000E+00
     17481  1.119445E-06 -3.519278E-07  0.000000E+00
     17482  1.119445E-06 -3.519278E-07  0.000000E+00
     17483  1.127922E-06 -3.718440E-07  0.000000E+00
     17484  1.127922E-06 -3.718440E-07  0.000000E+00
     17485  1.136541E-06 -3.925005E-07  0.000000E+00
     17486  1.136541E-06 -3.925005E-07  0.000000E+00
     17487  1.145289E-06 -4.139464E-07  0.000000E+00
     17488  1.145289E-06 -4.139464E-07  0.000000E+00
     17489  1.154148E-06 -4.362335E-07  0.000000E+00
     17490  1.154148E-06 -4.362335E-07  0.000000E+00
     17491  1.163100E-06 -4.594165E-07  0.000000E+00
     17492  1.163100E-06 -4.594165E-07  0.000000E+00
     17493  1.172130E-06 -4.835540E-07  0.000000E+00
     17494  1.172130E-06 -4.835540E-07  0.000000E+00
     17495  1.181217E-06 -5.087100E-07  0.000000E+00
     17496  1.181217E-06 -5.087100E-07  0.000000E+00
     17497  1.190342E-06 -5.349550E-07  0.000000E+00
     17498  1.190342E-06 -5.349550E-07  0.000000E+00
     17499  1.199484E-06 -5.623681E-07  0.000000E+00
     17500  1.199484E-06 -5.623681E-07  0.000000E+00
     17501  1.208623E-06 -5.910392E-07  0.000000E+00
     17502  1.208623E-06 -5.910392E-07  0.000000E+00
     17503  1.217734E-06 -6.210722E-07  0.000000E+00
     17504  1.217734E-06 -6.210722E-07  0.000000E+00
     17505  1.226795E-06 -6.525904E-07  0.000000E+00
     17506  1.226795E-06 -6.525904E-07  0.000000E+00
     17507  1.235779E-06 -6.857425E-07  0.000000E+00
     17508  1.235779E-06 -6.857425E-07  0.000000E+00
     17509  1.244659E-06 -7.207137E-07  0.000000E+00
     17510  1.244659E-06 -7.207137E-07  0.000000E+00
     17511  1.253402E-06 -7.577419E-07  0.000000E+00
     17512  1.253402E-06 -7.577419E-07  0.000000E+00
     17513  1.261969E-06 -7.971451E-07  0.000000E+00
     17514  1.261969E-06 -7.971451E-07  0.000000E+00
     17515  1.270302E-06 -8.393708E-07  0.000000E+00
     17516  1.270302E-06 -8.393708E-07  0.000000E+00
     17517  1.278293E-06 -8.850890E-07  0.000000E+00
     17518  1.278293E-06 -8.850890E-07  0.000000E+00
     17519  1.285689E-06 -9.354125E-07  0.000000E+00
     17520  1.285689E-06 -9.354125E-07  0.000000E+00
     17521  1.291636E-06 -9.922297E-07  0.000000E+00
     17522  1.291636E-06 -9.922297E-07  0.000000E+00
     17523  1.294000E-06 -1.061469E-06  0.000000E+00
     17524  1.294000E-06 -1.061469E-06  0.000000E+00
