
                        S T E P       1


                                INCREMENT     1


 displacements (vx,vy,vz) for set NOUT and time  0.1000000E+01

         1  1.103643E-06 -1.435795E-06  0.000000E+00
         4  1.103643E-06 -1.435795E-06  0.000000E+00
         5  1.097196E-06 -1.335103E-06  0.000000E+00
         8  1.097196E-06 -1.335103E-06  0.000000E+00
         9  1.083651E-06 -1.253045E-06  0.000000E+00
        12  1.083651E-06 -1.253045E-06  0.000000E+00
        13  1.068665E-06 -1.181393E-06  0.000000E+00
        16  1.068665E-06 -1.181393E-06  0.000000E+00
        17  1.053236E-06 -1.116864E-06  0.000000E+00
        20  1.053236E-06 -1.116864E-06  0.000000E+00
        21  1.037580E-06 -1.057690E-06  0.000000E+00
        24  1.037580E-06 -1.057690E-06  0.000000E+00
        25  1.021770E-06 -1.002839E-06  0.000000E+00
        28  1.021770E-06 -1.002839E-06  0.000000E+00
        29  1.005838E-06 -9.516322E-07  0.000000E+00
        32  1.005838E-06 -9.516322E-07  0.000000E+00
        33  9.898074E-07 -9.035936E-07  0.000000E+00
        36  9.898074E-07 -9.035936E-07  0.000000E+00
        37  9.736956E-07 -8.583717E-07  0.000000E+00
        40  9.736956E-07 -8.583717E-07  0.000000E+00
        41  9.575197E-07 -8.156970E-07  0.000000E+00
        44  9.575197E-07 -8.156970E-07  0.000000E+00
        45  9.412963E-07 -7.753565E-07  0.000000E+00
        48  9.412963E-07 -7.753565E-07  0.000000E+00
        49  9.250414E-07 -7.371778E-07  0.000000E+00
        52  9.250414E-07 -7.371778E-07  0.000000E+00
        53  9.087712E-07 -7.010182E-07  0.000000E+00
        56  9.087712E-07 -7.010182E-07  0.000000E+00
        57  8.925015E-07 -6.667575E-07  0.000000E+00
        60  8.925015E-07 -6.667575E-07  0.000000E+00
        61  8.762477E-07 -6.342930E-07  0.000000E+00
        64  8.762477E-07 -6.342930E-07  0.000000E+00
        65  8.600247E-07 -6.035358E-07  0.000000E+00
        68  8.600247E-07 -6.035358E-07  0.000000E+00
        69  8.438468E-07 -5.744079E-07  0.000000E+00
        72  8.438468E-07 -5.744079E-07  0.000000E+00
        73  8.277275E-07 -5.468407E-07  0.000000E+00
        76  8.277275E-07 -5.468407E-07  0.000000E+00
        77  8.116796E-07 -5.207727E-07  0.000000E+00
        80  8.116796E-07 -5.207727E-07  0.000000E+00
        81  7.957147E-07 -4.961492E-07  0.000000E+00
        84  7.957147E-07 -4.961492E-07  0.000000E+00
        85  7.798436E-07 -4.729209E-07  0.000000E+00
        88  7.798436E-07 -4.729209E-07  0.000000E+00
        89  7.640760E-07 -4.510436E-07  0.000000E+00
        92  7.640760E-07 -4.510436E-07  0.000000E+00
        93  7.484204E-07 -4.304774E-07  0.000000E+00
        96  7.484204E-07 -4.304774E-07  0.000000E+00
        97  7.328841E-07 -4.111869E-07  0.000000E+00
       100  7.328841E-07 -4.111869E-07  0.000000E+00
       101  7.174732E-07 -3.931405E-07  0.000000E+00
       104  7.174732E-07 -3.931405E-07  0.000000E+00
       105  7.021924E-07 -3.763106E-07  0.000000E+00
       108  7.021924E-07 -3.763106E-07  0.000000E+00
       109  6.870450E-07 -3.606735E-07  0.000000E+00
       112  6.870450E-07 -3.606735E-07  0.000000E+00
       113  6.720330E-07 -3.462097E-07  0.000000E+00
       116  6.720330E-07 -3.462097E-07  0.000000E+00
       117  6.571568E-07 -3.329040E-07  0.000000E+00
       120  6.571568E-07 -3.329040E-07  0.000000E+00
       121  6.424152E-07 -3.207458E-07  0.000000E+00
       124  6.424152E-07 -3.207458E-07  0.000000E+00
       125  6.278055E-07 -3.097300E-07  0.000000E+00
       128  6.278055E-07 -3.097300E-07  0.000000E+00
       129  6.133231E-07 -2.998571E-07  0.000000E+00
       132  6.133231E-07 -2.998571E-07  0.000000E+00
       133  5.989617E-07 -2.911347E-07  0.000000E+00
       136  5.989617E-07 -2.911347E-07  0.000000E+00
       137  5.847131E-07 -2.835783E-07  0.000000E+00
       140  5.847131E-07 -2.835783E-07  0.000000E+00
       141  5.705668E-07 -2.772136E-07  0.000000E+00
       144  5.705668E-07 -2.772136E-07  0.000000E+00
       145  5.565105E-07 -2.720784E-07  0.000000E+00
       148  5.565105E-07 -2.720784E-07  0.000000E+00
       149  5.425292E-07 -2.682266E-07  0.000000E+00
       152  5.425292E-07 -2.682266E-07  0.000000E+00
       153  5.286053E-07 -2.657335E-07  0.000000E+00
       156  5.286053E-07 -2.657335E-07  0.000000E+00
       157  5.147187E-07 -2.647051E-07  0.000000E+00
       160  5.147187E-07 -2.647051E-07  0.000000E+00
       161  5.008462E-07 -2.652937E-07  0.000000E+00
       164  5.008462E-07 -2.652937E-07  0.000000E+00
       165  4.869626E-07 -2.677353E-07  0.000000E+00
       168  4.869626E-07 -2.677353E-07  0.000000E+00
       169  4.730592E-07 -2.724206E-07  0.000000E+00
       172  4.730592E-07 -2.724206E-07  0.000000E+00
       173  4.593429E-07 -2.803826E-07  0.000000E+00
       176  4.593429E-07 -2.803826E-07  0.000000E+00
       177  4.464560E-07 -2.925797E-07  0.000000E+00
       180  4.464560E-07 -2.925797E-07  0.000000E+00
       181  4.345769E-07 -3.052877E-07  0.000000E+00
       184  4.345769E-07 -3.052877E-07  0.000000E+00
       185  4.233466E-07 -3.188757E-07  0.000000E+00
       188  4.233466E-07 -3.188757E-07  0.000000E+00
       189  4.126144E-07 -3.332883E-07  0.000000E+00
       192  4.126144E-07 -3.332883E-07  0.000000E+00
       193  4.022875E-07 -3.485713E-07  0.000000E+00
       196  4.022875E-07 -3.485713E-07  0.000000E+00
       197  3.922922E-07 -3.647664E-07  0.000000E+00
       200  3.922922E-07 -3.647664E-07  0.000000E+00
       201  3.825671E-07 -3.819575E-07  0.000000E+00
       204  3.825671E-07 -3.819575E-07  0.000000E+00
       205  3.730572E-07 -4.002203E-07  0.000000E+00
       208  3.730572E-07 -4.002203E-07  0.000000E+00
       209  3.637059E-07 -4.196467E-07  0.000000E+00
       212  3.637059E-07 -4.196467E-07  0.000000E+00
       213  3.544529E-07 -4.403604E-07  0.000000E+00
       216  3.544529E-07 -4.403604E-07  0.000000E+00
       217  3.452263E-07 -4.624913E-07  0.000000E+00
       220  3.452263E-07 -4.624913E-07  0.000000E+00
       221  3.359343E-07 -4.862422E-07  0.000000E+00
       224  3.359343E-07 -4.862422E-07  0.000000E+00
       225  3.264722E-07 -5.119604E-07  0.000000E+00
       228  3.264722E-07 -5.119604E-07  0.000000E+00
       229  3.167173E-07 -5.401043E-07  0.000000E+00
       232  3.167173E-07 -5.401043E-07  0.000000E+00
       233  3.065193E-07 -5.715150E-07  0.000000E+00
       236  3.065193E-07 -5.715150E-07  0.000000E+00
       237  2.958351E-07 -6.074931E-07  0.000000E+00
       240  2.958351E-07 -6.074931E-07  0.000000E+00
       241  2.849827E-07 -6.527374E-07  0.000000E+00
       244  2.849827E-07 -6.527374E-07  0.000000E+00
     17383  8.052559E-07  2.919364E-07  0.000000E+00
     17384  8.052559E-07  2.919364E-07  0.000000E+00
     17385  8.052525E-07  2.800207E-07  0.000000E+00
     17386  8.052525E-07  2.800207E-07  0.000000E+00
     17387  8.052346E-07  2.680986E-07  0.000000E+00
     17388  8.052346E-07  2.680986E-07  0.000000E+00
     17389  8.051951E-07  2.561919E-07  0.000000E+00
     17390  8.051951E-07  2.561919E-07  0.000000E+00
     17391  8.051365E-07  2.443245E-07  0.000000E+00
     17392  8.051365E-07  2.443245E-07  0.000000E+00
     17393  8.050669E-07  2.325165E-07  0.000000E+00
     17394  8.050669E-07  2.325165E-07  0.000000E+00
     17395  8.049977E-07  2.207838E-07  0.000000E+00
     17396  8.049977E-07  2.207838E-07  0.000000E+00
     17397  8.049413E-07  2.091380E-07  0.000000E+00
     17398  8.049413E-07  2.091380E-07  0.000000E+00
     17399  8.049111E-07  1.975873E-07  0.000000E+00
     17400  8.049111E-07  1.975873E-07  0.000000E+00
     17401  8.049202E-07  1.861366E-07  0.000000E+00
     17402  8.049202E-07  1.861366E-07  0.000000E+00
     17403  8.049816E-07  1.747884E-07  0.000000E+00
     17404  8.049816E-07  1.747884E-07  0.000000E+00
     17405  8.051079E-07  1.635426E-07  0.000000E+00
     17406  8.051079E-07  1.635426E-07  0.000000E+00
     17407  8.053109E-07  1.523973E-07  0.000000E+00
     17408  8.053109E-07  1.523973E-07  0.000000E+00
     17409  8.056019E-07  1.413489E-07  0.000000E+00
     17410  8.056019E-07  1.413489E-07  0.000000E+00
     17411  8.059914E-07  1.303925E-07  0.000000E+00
     17412  8.059914E-07  1.303925E-07  0.000000E+00
     17413  8.064894E-07  1.195216E-07  0.000000E+00
     17414  8.064894E-07  1.195216E-07  0.000000E+00
     17415  8.071049E-07  1.087290E-07  0.000000E+00
     17416  8.071049E-07  1.087290E-07  0.000000E+00
     17417  8.078463E-07  9.800624E-08  0.000000E+00
     17418  8.078463E-07  9.800624E-08  0.000000E+00
     17419  8.087212E-07  8.734430E-08  0.000000E+00
     17420  8.087212E-07  8.734430E-08  0.000000E+00
     17421  8.097364E-07  7.673336E-08  0.000000E+00
     17422  8.097364E-07  7.673336E-08  0.000000E+00
     17423  8.108982E-07  6.616302E-08  0.000000E+00
     17424  8.108982E-07  6.616302E-08  0.000000E+00
     17425  8.122120E-07  5.562240E-08  0.000000E+00
     17426  8.122120E-07  5.562240E-08  0.000000E+00
     17427  8.136824E-07  4.510022E-08  0.000000E+00
     17428  8.136824E-07  4.510022E-08  0.000000E+00
     17429  8.153134E-07  3.458487E-08  0.000000E+00
     17430  8.153134E-07  3.458487E-08  0.000000E+00
     17431  8.171084E-07  2.406449E-08  0.000000E+00
     17432  8.171084E-07  2.406449E-08  0.000000E+00
     17433  8.190698E-07  1.352706E-08  0.000000E+00
     17434  8.190698E-07  1.352706E-08  0.000000E+00
     17435  8.211995E-07  2.960442E-09  0.000000E+00
     17436  8.211995E-07  2.960442E-09  0.000000E+00
     17437  8.234986E-07 -7.647497E-09  0.000000E+00
     17438  8.234986E-07 -7.647497E-09  0.000000E+00
     17439  8.259674E-07 -1.830885E-08  0.000000E+00
     17440  8.259674E-07 -1.830885E-08  0.000000E+00
     17441  8.286058E-07 -2.903558E-08  0.000000E+00
     17442  8.286058E-07 -2.903558E-08  0.000000E+00
     17443  8.314125E-07 -3.983940E-08  0.000000E+00
     17444  8.314125E-07 -3.983940E-08  0.000000E+00
     17445  8.343858E-07 -5.073174E-08  0.000000E+00
     17446  8.343858E-07 -5.073174E-08  0.000000E+00
     17447  8.375231E-07 -6.172357E-08  0.000000E+00
     17448  8.375231E-07 -6.172357E-08  0.000000E+00
     17449  8.408210E-07 -7.282533E-08  0.000000E+00
     17450  8.408210E-07 -7.282533E-08  0.000000E+00
     17451  8.442754E-07 -8.404679E-08  0.000000E+00
     17452  8.442754E-07 -8.404679E-08  0.000000E+00
     17453  8.478813E-07 -9.539684E-08  0.000000E+00
     17454  8.478813E-07 -9.539684E-08  0.000000E+00
     17455  8.516331E-07 -1.068834E-07  0.000000E+00
     17456  8.516331E-07 -1.068834E-07  0.000000E+00
     17457  8.555241E-07 -1.185130E-07  0.000000E+00
     17458  8.555241E-07 -1.185130E-07  0.000000E+00
     17459  8.595468E-07 -1.302908E-07  0.000000E+00
     17460  8.595468E-07 -1.302908E-07  0.000000E+00
     17461  8.636929E-07 -1.422198E-07  0.000000E+00
     17462  8.636929E-07 -1.422198E-07  0.000000E+00
     17463  8.679529E-07 -1.543010E-07  0.000000E+00
     17464  8.679529E-07 -1.543010E-07  0.000000E+00
     17465  8.723167E-07 -1.665320E-07  0.000000E+00
     17466  8.723167E-07 -1.665320E-07  0.000000E+00
     17467  8.767729E-07 -1.789071E-07  0.000000E+00
     17468  8.767729E-07 -1.789071E-07  0.000000E+00
     17469  8.813093E-07 -1.914153E-07  0.000000E+00
     17470  8.813093E-07 -1.914153E-07  0.000000E+00
     17471  8.859123E-07 -2.040394E-07  0.000000E+00
     17472  8.859123E-07 -2.040394E-07  0.000000E+00
     17473  8.905674E-07 -2.167529E-07  0.000000E+00
     17474  8.905674E-07 -2.167529E-07  0.000000E+00
     17475  8.952590E-07 -2.295162E-07  0.000000E+00
     17476  8.952590E-07 -2.295162E-07  0.000000E+00
     17477  8.999709E-07 -2.422693E-07  0.000000E+00
     17478  8.999709E-07 -2.422693E-07  0.000000E+00
     17479  9.046889E-07 -2.549171E-07  0.000000E+00
     17480  9.046889E-07 -2.549171E-07  0.000000E+00
     17481  9.094103E-07 -2.672931E-07  0.000000E+00
     17482  9.094103E-07 -2.672931E-07  0.000000E+00
     17483  9.141989E-07 -2.790538E-07  0.000000E+00
     17484  9.141989E-07 -2.790538E-07  0.000000E+00
     17485  9.190732E-07 -2.892347E-07  0.000000E+00
     17486  9.190732E-07 -2.892347E-07  0.000000E+00
     17487  9.240479E-07 -3.000927E-07  0.000000E+00
     17488  9.240479E-07 -3.000927E-07  0.000000E+00
     17489  9.291277E-07 -3.114434E-07  0.000000E+00
     17490  9.291277E-07 -3.114434E-07  0.000000E+00
     17491  9.342401E-07 -3.234178E-07  0.000000E+00
     17492  9.342401E-07 -3.234178E-07  0.000000E+00
     17493  9.393416E-07 -3.359935E-07  0.000000E+00
     17494  9.393416E-07 -3.359935E-07  0.000000E+00
     17495  9.443911E-07 -3.492168E-07  0.000000E+00
     17496  9.443911E-07 -3.492168E-07  0.000000E+00
     17497  9.493512E-07 -3.631309E-07  0.000000E+00
     17498  9.493512E-07 -3.631309E-07  0.000000E+00
     17499  9.541834E-07 -3.777796E-07  0.000000E+00
     17500  9.541834E-07 -3.777796E-07  0.000000E+00
     17501  9.588474E-07 -3.931981E-07  0.000000E+00
     17502  9.588474E-07 -3.931981E-07  0.000000E+00
     17503  9.632997E-07 -4.094394E-07  0.000000E+00
     17504  9.632997E-07 -4.094394E-07  0.000000E+00
     17505  9.674934E-07 -4.265694E-07  0.000000E+00
     17506  9.674934E-07 -4.265694E-07  0.000000E+00
     17507  9.713758E-07 -4.446659E-07  0.000000E+00
     17508  9.713758E-07 -4.446659E-07  0.000000E+00
     17509  9.748849E-07 -4.638334E-07  0.000000E+00
     17510  9.748849E-07 -4.638334E-07  0.000000E+00
     17511  9.779447E-07 -4.842368E-07  0.000000E+00
     17512  9.779447E-07 -4.842368E-07  0.000000E+00
     17513  9.804585E-07 -5.060856E-07  0.000000E+00
     17514  9.804585E-07 -5.060856E-07  0.000000E+00
     17515  9.822896E-07 -5.296299E-07  0.000000E+00
     17516  9.822896E-07 -5.296299E-07  0.000000E+00
     17517  9.832242E-07 -5.553186E-07  0.000000E+00
     17518  9.832242E-07 -5.553186E-07  0.000000E+00
     17519  9.828507E-07 -5.837985E-07  0.000000E+00
     17520  9.828507E-07 -5.837985E-07  0.000000E+00
     17521  9.801339E-07 -6.163664E-07  0.000000E+00
     17522  9.801339E-07 -6.163664E-07  0.000000E+00
     17523  9.719061E-07 -6.566567E-07  0.000000E+00
     17524  9.719061E-07 -6.566567E-07  0.000000E+00
