
                        S T E P       1


                                INCREMENT     1


 displacements (vx,vy,vz) for set NALL and time  0.1000000E+01

         1  0.000000E+00  0.000000E+00  0.000000E+00
         2  0.000000E+00  0.000000E+00  0.000000E+00
         3 -2.085397E-05  6.843175E-05 -2.976190E-05
         4 -2.085397E-05 -6.843175E-05 -2.976190E-05
         5  0.000000E+00  0.000000E+00  0.000000E+00
         6  0.000000E+00  0.000000E+00  0.000000E+00
         7  2.085397E-05  6.843175E-05 -2.976190E-05
         8  2.085397E-05 -6.843175E-05 -2.976190E-05
         9  0.000000E+00  0.000000E+00  0.000000E+00
        10  2.305516E-05  7.337311E-07 -1.488095E-05
        11 -5.653730E-05  4.584566E-20 -9.672619E-05
        12  2.305516E-05 -7.337311E-07 -1.488095E-05
        13  0.000000E+00  0.000000E+00  0.000000E+00
        14  0.000000E+00  0.000000E+00  0.000000E+00
        15 -3.701079E-19  3.274841E-05 -9.672619E-05
        16 -3.623183E-19 -3.274841E-05 -9.672619E-05
        17  0.000000E+00  0.000000E+00  0.000000E+00
        18 -2.305516E-05  7.337311E-07 -1.488095E-05
        19  5.653730E-05 -1.160435E-19 -9.672619E-05
        20 -2.305516E-05 -7.337311E-07 -1.488095E-05
        21  0.000000E+00  0.000000E+00  0.000000E+00
        22  0.000000E+00  0.000000E+00  0.000000E+00
        23  0.000000E+00  0.000000E+00  0.000000E+00
        24  0.000000E+00  0.000000E+00  0.000000E+00
        25  0.000000E+00  0.000000E+00  0.000000E+00
        26  0.000000E+00  0.000000E+00  0.000000E+00
        27  0.000000E+00  0.000000E+00  0.000000E+00
        28  0.000000E+00  0.000000E+00  0.000000E+00
        29  0.000000E+00  0.000000E+00  0.000000E+00
        30  0.000000E+00  0.000000E+00  0.000000E+00
        31  0.000000E+00  0.000000E+00  0.000000E+00
        32  0.000000E+00  0.000000E+00  0.000000E+00
        33  0.000000E+00  0.000000E+00  0.000000E+00
        34  0.000000E+00  0.000000E+00  0.000000E+00
        35  0.000000E+00  0.000000E+00  0.000000E+00
        36  0.000000E+00  0.000000E+00  0.000000E+00
        37  0.000000E+00  0.000000E+00  0.000000E+00
        38  0.000000E+00  0.000000E+00  0.000000E+00
        39  0.000000E+00  0.000000E+00  0.000000E+00
        40  0.000000E+00  0.000000E+00  0.000000E+00

 stresses (elem, integ.pnt.,sxx,syy,szz,sxy,sxz,syz) for set EALL and time  0.1000000E+01

         1   1  5.412659E+00  5.412659E+00 -2.500000E+01 -5.692061E-15  5.412659E+00  5.412659E+00
         1   2  5.412659E+00  5.412659E+00 -2.500000E+01 -8.538092E-15  5.412659E+00 -5.412659E+00
         1   3 -5.412659E+00 -5.412659E+00 -2.500000E+01  8.538092E-15  5.412659E+00  5.412659E+00
         1   4 -5.412659E+00 -5.412659E+00 -2.500000E+01  1.351865E-14  5.412659E+00 -5.412659E+00
         1   5  5.412659E+00  5.412659E+00 -2.500000E+01  3.201785E-15 -5.412659E+00  5.412659E+00
         1   6  5.412659E+00  5.412659E+00 -2.500000E+01 -3.557538E-15 -5.412659E+00 -5.412659E+00
         1   7 -5.412659E+00 -5.412659E+00 -2.500000E+01  1.067262E-14 -5.412659E+00  5.412659E+00
         1   8 -5.412659E+00 -5.412659E+00 -2.500000E+01  5.692061E-15 -5.412659E+00 -5.412659E+00

                        S T E P       2


                                INCREMENT     1


 displacements (vx,vy,vz) for set NALL and time  0.2000000E+01

         1  0.000000E+00  0.000000E+00  0.000000E+00
         2  0.000000E+00  0.000000E+00  0.000000E+00
         3 -4.651565E-05  1.320504E-04 -5.952917E-05
         4 -4.651565E-05 -1.320504E-04 -5.952917E-05
         5  0.000000E+00  0.000000E+00  0.000000E+00
         6  0.000000E+00  0.000000E+00  0.000000E+00
         7  4.651565E-05  1.320504E-04 -5.952917E-05
         8  4.651565E-05 -1.320504E-04 -5.952917E-05
         9  0.000000E+00  0.000000E+00  0.000000E+00
        10  4.370368E-05 -9.378365E-07 -2.976458E-05
        11 -1.106652E-04  1.031263E-19 -1.934553E-04
        12  4.370368E-05  9.378365E-07 -2.976458E-05
        13  0.000000E+00  0.000000E+00  0.000000E+00
        14  0.000000E+00  0.000000E+00  0.000000E+00
        15 -4.726028E-19  6.790088E-05 -1.934522E-04
        16 -4.027642E-19 -6.790088E-05 -1.934522E-04
        17  0.000000E+00  0.000000E+00  0.000000E+00
        18 -4.370368E-05 -9.378365E-07 -2.976458E-05
        19  1.106652E-04 -2.774033E-19 -1.934553E-04
        20 -4.370368E-05  9.378365E-07 -2.976458E-05
        21  0.000000E+00  0.000000E+00  0.000000E+00
        22  0.000000E+00  0.000000E+00  0.000000E+00
        23  0.000000E+00  0.000000E+00  0.000000E+00
        24  0.000000E+00  0.000000E+00  0.000000E+00
        25  0.000000E+00  0.000000E+00  0.000000E+00
        26  0.000000E+00  0.000000E+00  0.000000E+00
        27  0.000000E+00  0.000000E+00  0.000000E+00
        28  0.000000E+00  0.000000E+00  0.000000E+00
        29  0.000000E+00  0.000000E+00  0.000000E+00
        30  0.000000E+00  0.000000E+00  0.000000E+00
        31  0.000000E+00  0.000000E+00  0.000000E+00
        32  0.000000E+00  0.000000E+00  0.000000E+00
        33  0.000000E+00  0.000000E+00  0.000000E+00
        34  0.000000E+00  0.000000E+00  0.000000E+00
        35  0.000000E+00  0.000000E+00  0.000000E+00
        36  0.000000E+00  0.000000E+00  0.000000E+00
        37  0.000000E+00  0.000000E+00  0.000000E+00
        38  0.000000E+00  0.000000E+00  0.000000E+00
        39  0.000000E+00  0.000000E+00  0.000000E+00
        40  0.000000E+00  0.000000E+00  0.000000E+00

 stresses (elem, integ.pnt.,sxx,syy,szz,sxy,sxz,syz) for set EALL and time  0.2000000E+01

         1   1  1.082487E+01  1.082512E+01 -5.000000E+01 -1.209563E-14  1.082487E+01  1.082512E+01
         1   2  1.082487E+01  1.082512E+01 -5.000000E+01 -2.454701E-14  1.082487E+01 -1.082512E+01
         1   3 -1.082487E+01 -1.082512E+01 -5.000000E+01  1.565317E-14  1.082487E+01  1.082512E+01
         1   4 -1.082487E+01 -1.082512E+01 -5.000000E+01  2.134523E-14  1.082487E+01 -1.082512E+01
         1   5  1.082487E+01  1.082512E+01 -5.000000E+01 -1.423015E-15 -1.082487E+01  1.082512E+01
         1   6  1.082487E+01  1.082512E+01 -5.000000E+01 -1.351865E-14 -1.082487E+01 -1.082512E+01
         1   7 -1.082487E+01 -1.082512E+01 -5.000000E+01  8.538092E-15 -1.082487E+01  1.082512E+01
         1   8 -1.082487E+01 -1.082512E+01 -5.000000E+01  5.692061E-15 -1.082487E+01 -1.082512E+01
