
                        S T E P       1


                                INCREMENT     1


 displacements (vx,vy,vz) for set NALL and time  0.1000000E+01

         1  0.000000E+00  0.000000E+00  0.000000E+00
         2  0.000000E+00  0.000000E+00  0.000000E+00
         3 -2.856297E-05  2.856297E-05 -5.345859E-05
         4 -2.856297E-05 -2.856297E-05 -5.345859E-05
         5  0.000000E+00  0.000000E+00  0.000000E+00
         6  0.000000E+00  0.000000E+00  0.000000E+00
         7  2.856297E-05  2.856297E-05 -5.345859E-05
         8  2.856297E-05 -2.856297E-05 -5.345859E-05
         9  0.000000E+00  0.000000E+00  0.000000E+00
        10  5.553910E-06 -5.553910E-06 -2.672929E-05
        11 -2.856297E-05 -3.515187E-20 -1.026504E-04
        12  5.553910E-06  5.553910E-06 -2.672929E-05
        13  0.000000E+00  0.000000E+00  0.000000E+00
        14  0.000000E+00  0.000000E+00  0.000000E+00
        15 -2.253108E-19  2.856297E-05 -1.026504E-04
        16 -3.461188E-19 -2.856297E-05 -1.026504E-04
        17  0.000000E+00  0.000000E+00  0.000000E+00
        18 -5.553910E-06 -5.553910E-06 -2.672929E-05
        19  2.856297E-05 -2.782384E-20 -1.026504E-04
        20 -5.553910E-06  5.553910E-06 -2.672929E-05
        21  0.000000E+00  0.000000E+00  0.000000E+00
        22  0.000000E+00  0.000000E+00  0.000000E+00
        23  0.000000E+00  0.000000E+00  0.000000E+00
        24  0.000000E+00  0.000000E+00  0.000000E+00
        25  0.000000E+00  0.000000E+00  0.000000E+00
        26  0.000000E+00  0.000000E+00  0.000000E+00
        27  0.000000E+00  0.000000E+00  0.000000E+00
        28  0.000000E+00  0.000000E+00  0.000000E+00
        29  0.000000E+00  0.000000E+00  0.000000E+00
        30  0.000000E+00  0.000000E+00  0.000000E+00
        31  0.000000E+00  0.000000E+00  0.000000E+00
        32  0.000000E+00  0.000000E+00  0.000000E+00
        33  0.000000E+00  0.000000E+00  0.000000E+00
        34  0.000000E+00  0.000000E+00  0.000000E+00
        35  0.000000E+00  0.000000E+00  0.000000E+00
        36  0.000000E+00  0.000000E+00  0.000000E+00
        37  0.000000E+00  0.000000E+00  0.000000E+00
        38  0.000000E+00  0.000000E+00  0.000000E+00
        39  0.000000E+00  0.000000E+00  0.000000E+00
        40  0.000000E+00  0.000000E+00  0.000000E+00

 stresses (elem, integ.pnt.,sxx,syy,szz,sxy,sxz,syz) for set EALL and time  0.1000000E+01

         1   1  1.980327E+00  1.980327E+00 -1.949052E+01  4.369802E-15  4.479048E+00  4.479048E+00
         1   2  1.980327E+00  1.980327E+00 -2.568868E+01  4.330891E-15  4.479048E+00  9.783231E-15
         1   3  1.980327E+00  1.980327E+00 -1.949052E+01  3.574914E-15  4.479048E+00 -4.479048E+00
         1   4  2.332642E+00  2.332642E+00 -1.949052E+01  2.165651E-15  5.678693E+00  5.678693E+00
         1   5  2.332642E+00  2.332642E+00 -2.568868E+01  5.356319E-15  5.678693E+00  1.423015E-14
         1   6  2.332642E+00  2.332642E+00 -1.949052E+01  6.390228E-15  5.678693E+00 -5.678693E+00
         1   7 -7.312080E+00 -7.312080E+00 -1.949052E+01 -3.296796E-14  6.878338E+00  6.878338E+00
         1   8 -7.312080E+00 -7.312080E+00 -2.568868E+01 -1.469111E-14  6.878338E+00  1.414122E-14
         1   9 -7.312080E+00 -7.312080E+00 -1.949052E+01 -5.080198E-15  6.878338E+00 -6.878338E+00
         1  10  1.980327E+00  1.980327E+00 -2.568868E+01  2.325822E-15  3.985574E-15  4.479048E+00
         1  11  1.980327E+00  1.980327E+00 -3.188685E+01  2.198110E-15 -7.999413E-16  2.668154E-15
         1  12  1.980327E+00  1.980327E+00 -2.568868E+01  1.724966E-15 -5.210499E-15 -4.479048E+00
         1  13  2.332642E+00  2.332642E+00 -2.568868E+01  7.281836E-16  2.619155E-15  5.678693E+00
         1  14  2.332642E+00  2.332642E+00 -3.188685E+01  2.373545E-15 -6.503625E-16 -1.423015E-15
         1  15  2.332642E+00  2.332642E+00 -2.568868E+01  3.241318E-15 -2.529207E-15 -5.678693E+00
         1  16 -7.312080E+00 -7.312080E+00 -2.568868E+01 -1.477248E-14  5.412286E-16  6.878338E+00
         1  17 -7.312080E+00 -7.312080E+00 -3.188685E+01 -8.379058E-15 -2.869780E-15 -8.538092E-15
         1  18 -7.312080E+00 -7.312080E+00 -2.568868E+01 -4.790629E-15  2.531194E-15 -6.878338E+00
         1  19  1.980327E+00  1.980327E+00 -1.949052E+01 -1.271491E-16 -4.479048E+00  4.479048E+00
         1  20  1.980327E+00  1.980327E+00 -2.568868E+01 -3.821063E-17 -4.479048E+00 -1.778769E-16
         1  21  1.980327E+00  1.980327E+00 -1.949052E+01 -1.716183E-16 -4.479048E+00 -4.479048E+00
         1  22  2.332642E+00  2.332642E+00 -1.949052E+01 -2.092277E-15 -5.678693E+00  5.678693E+00
         1  23  2.332642E+00  2.332642E+00 -2.568868E+01 -7.582004E-16 -5.678693E+00  9.783231E-16
         1  24  2.332642E+00  2.332642E+00 -1.949052E+01 -2.803785E-15 -5.678693E+00 -5.678693E+00
         1  25 -7.312080E+00 -7.312080E+00 -1.949052E+01 -1.033498E-15 -6.878338E+00  6.878338E+00
         1  26 -7.312080E+00 -7.312080E+00 -2.568868E+01 -3.657182E-15 -6.878338E+00 -1.067262E-15
         1  27 -7.312080E+00 -7.312080E+00 -1.949052E+01 -8.370921E-15 -6.878338E+00 -6.878338E+00

                        S T E P       2


                                INCREMENT     1


 displacements (vx,vy,vz) for set NALL and time  0.2000000E+01

         1  0.000000E+00  0.000000E+00  0.000000E+00
         2  0.000000E+00  0.000000E+00  0.000000E+00
         3 -5.712483E-05  5.712483E-05 -1.069197E-04
         4 -5.712483E-05 -5.712483E-05 -1.069197E-04
         5  0.000000E+00  0.000000E+00  0.000000E+00
         6  0.000000E+00  0.000000E+00  0.000000E+00
         7  5.712483E-05  5.712483E-05 -1.069197E-04
         8  5.712483E-05 -5.712483E-05 -1.069197E-04
         9  0.000000E+00  0.000000E+00  0.000000E+00
        10  1.110761E-05 -1.110761E-05 -5.345986E-05
        11 -5.712483E-05 -4.658681E-20 -2.053014E-04
        12  1.110761E-05  1.110761E-05 -5.345986E-05
        13  0.000000E+00  0.000000E+00  0.000000E+00
        14  0.000000E+00  0.000000E+00  0.000000E+00
        15  1.410310E-19  5.712483E-05 -2.053014E-04
        16 -1.958764E-19 -5.712483E-05 -2.053014E-04
        17  0.000000E+00  0.000000E+00  0.000000E+00
        18 -1.110761E-05 -1.110761E-05 -5.345986E-05
        19  5.712483E-05 -9.758444E-20 -2.053014E-04
        20 -1.110761E-05  1.110761E-05 -5.345986E-05
        21  0.000000E+00  0.000000E+00  0.000000E+00
        22  0.000000E+00  0.000000E+00  0.000000E+00
        23  0.000000E+00  0.000000E+00  0.000000E+00
        24  0.000000E+00  0.000000E+00  0.000000E+00
        25  0.000000E+00  0.000000E+00  0.000000E+00
        26  0.000000E+00  0.000000E+00  0.000000E+00
        27  0.000000E+00  0.000000E+00  0.000000E+00
        28  0.000000E+00  0.000000E+00  0.000000E+00
        29  0.000000E+00  0.000000E+00  0.000000E+00
        30  0.000000E+00  0.000000E+00  0.000000E+00
        31  0.000000E+00  0.000000E+00  0.000000E+00
        32  0.000000E+00  0.000000E+00  0.000000E+00
        33  0.000000E+00  0.000000E+00  0.000000E+00
        34  0.000000E+00  0.000000E+00  0.000000E+00
        35  0.000000E+00  0.000000E+00  0.000000E+00
        36  0.000000E+00  0.000000E+00  0.000000E+00
        37  0.000000E+00  0.000000E+00  0.000000E+00
        38  0.000000E+00  0.000000E+00  0.000000E+00
        39  0.000000E+00  0.000000E+00  0.000000E+00
        40  0.000000E+00  0.000000E+00  0.000000E+00

 stresses (elem, integ.pnt.,sxx,syy,szz,sxy,sxz,syz) for set EALL and time  0.2000000E+01

         1   1  3.960577E+00  3.960577E+00 -3.898126E+01  8.766590E-15  8.957924E+00  8.957924E+00
         1   2  3.960577E+00  3.960577E+00 -5.137734E+01  8.855528E-15  8.957924E+00  2.116735E-14
         1   3  3.960577E+00  3.960577E+00 -3.898126E+01  9.033405E-15  8.957924E+00 -8.957924E+00
         1   4  4.665194E+00  4.665194E+00 -3.898126E+01  1.140191E-14  1.135717E+01  1.135717E+01
         1   5  4.665194E+00  4.665194E+00 -5.137734E+01  1.575990E-14  1.135717E+01  2.223461E-14
         1   6  4.665194E+00  4.665194E+00 -3.898126E+01  1.662704E-14  1.135717E+01 -1.135717E+01
         1   7 -1.462388E+01 -1.462388E+01 -3.898126E+01 -3.477887E-14  1.375641E+01  1.375641E+01
         1   8 -1.462388E+01 -1.462388E+01 -5.137734E+01 -1.448978E-14  1.375641E+01  2.365763E-14
         1   9 -1.462388E+01 -1.462388E+01 -3.898126E+01 -1.404709E-15  1.375641E+01 -1.375641E+01
         1  10  3.960577E+00  3.960577E+00 -5.137734E+01  4.591257E-15  5.363381E-15  8.957924E+00
         1  11  3.960577E+00  3.960577E+00 -6.377343E+01  5.981199E-15  2.869274E-15 -2.134523E-15
         1  12  3.960577E+00  3.960577E+00 -5.137734E+01  6.346752E-15 -1.009436E-15 -8.957924E+00
         1  13  4.665194E+00  4.665194E+00 -5.137734E+01  3.301840E-15 -3.933670E-16  1.135717E+01
         1  14  4.665194E+00  4.665194E+00 -6.377343E+01  8.193456E-15 -1.100613E-15  1.778769E-15
         1  15  4.665194E+00  4.665194E+00 -5.137734E+01  1.152989E-14 -3.117685E-15 -1.135717E+01
         1  16 -1.462388E+01 -1.462388E+01 -5.137734E+01 -2.592703E-14 -7.573130E-15  1.375641E+01
         1  17 -1.462388E+01 -1.462388E+01 -6.377343E+01 -1.763158E-14 -1.318815E-14  1.778769E-15
         1  18 -1.462388E+01 -1.462388E+01 -5.137734E+01 -1.552422E-14 -1.447551E-14 -1.375641E+01
         1  19  3.960577E+00  3.960577E+00 -3.898126E+01  1.518105E-15 -8.957924E+00  8.957924E+00
         1  20  3.960577E+00  3.960577E+00 -5.137734E+01  2.674305E-15 -8.957924E+00 -1.636468E-14
         1  21  3.960577E+00  3.960577E+00 -3.898126E+01  3.741567E-15 -8.957924E+00 -8.957924E+00
         1  22  4.665194E+00  4.665194E+00 -3.898126E+01 -3.517516E-15 -1.135717E+01  1.135717E+01
         1  23  4.665194E+00  4.665194E+00 -5.137734E+01  3.957761E-16 -1.135717E+01 -9.783231E-15
         1  24  4.665194E+00  4.665194E+00 -3.898126E+01 -1.378546E-16 -1.135717E+01 -1.135717E+01
         1  25 -1.462388E+01 -1.462388E+01 -3.898126E+01 -2.047089E-14 -1.375641E+01  1.375641E+01
         1  26 -1.462388E+01 -1.462388E+01 -5.137734E+01 -2.376161E-14 -1.375641E+01 -1.262926E-14
         1  27 -1.462388E+01 -1.462388E+01 -3.898126E+01 -2.731915E-14 -1.375641E+01 -1.375641E+01
