    1C
    1UModel: beam     Date: 10-Mar-1998                                 
    1UUSER                                                              
    1UDATE              28.june.2019                                    
    1UTIME              13:18:17                                        
    1UHOST                                                              
    1UPGM               CalculiX                                        
    1UVERSION           Version DEVELOPMENT                             
    1UCOMPILETIME       Fr 28. Jun 13:17:25 CEST 2019                    
    1UDIR                                                               
    1UDBN                                                               
    1UMAT    1UNDO_NLGEOM_LIN_EL_1                                      
    2C                           261                                     1
 -1         1 0.00000E+00 0.00000E+00 0.00000E+00
 -1         2 1.00000E+00 0.00000E+00 0.00000E+00
 -1         3 1.00000E+00 1.00000E+00 0.00000E+00
 -1         4 0.00000E+00 1.00000E+00 0.00000E+00
 -1         5 0.00000E+00 0.00000E+00 8.00000E+00
 -1         6 1.00000E+00 0.00000E+00 8.00000E+00
 -1         7 1.00000E+00 1.00000E+00 8.00000E+00
 -1         8 0.00000E+00 1.00000E+00 8.00000E+00
 -1         9 2.50000E-01 0.00000E+00 0.00000E+00
 -1        10 5.00000E-01 0.00000E+00 0.00000E+00
 -1        11 7.50000E-01 0.00000E+00 0.00000E+00
 -1        12 1.00000E+00 2.50000E-01 0.00000E+00
 -1        13 1.00000E+00 5.00000E-01 0.00000E+00
 -1        14 1.00000E+00 7.50000E-01 0.00000E+00
 -1        15 7.50000E-01 1.00000E+00 0.00000E+00
 -1        16 5.00000E-01 1.00000E+00 0.00000E+00
 -1        17 2.50000E-01 1.00000E+00 0.00000E+00
 -1        18 0.00000E+00 7.50000E-01 0.00000E+00
 -1        19 0.00000E+00 5.00000E-01 0.00000E+00
 -1        20 0.00000E+00 2.50000E-01 0.00000E+00
 -1        21 2.50000E-01 0.00000E+00 8.00000E+00
 -1        22 5.00000E-01 0.00000E+00 8.00000E+00
 -1        23 7.50000E-01 0.00000E+00 8.00000E+00
 -1        24 1.00000E+00 2.50000E-01 8.00000E+00
 -1        25 1.00000E+00 5.00000E-01 8.00000E+00
 -1        26 1.00000E+00 7.50000E-01 8.00000E+00
 -1        27 7.50000E-01 1.00000E+00 8.00000E+00
 -1        28 5.00000E-01 1.00000E+00 8.00000E+00
 -1        29 2.50000E-01 1.00000E+00 8.00000E+00
 -1        30 0.00000E+00 7.50000E-01 8.00000E+00
 -1        31 0.00000E+00 5.00000E-01 8.00000E+00
 -1        32 0.00000E+00 2.50000E-01 8.00000E+00
 -1        33 1.00000E+00 0.00000E+00 5.00000E-01
 -1        34 1.00000E+00 0.00000E+00 1.00000E+00
 -1        35 1.00000E+00 0.00000E+00 1.50000E+00
 -1        36 1.00000E+00 0.00000E+00 2.00000E+00
 -1        37 1.00000E+00 0.00000E+00 2.50000E+00
 -1        38 1.00000E+00 0.00000E+00 3.00000E+00
 -1        39 1.00000E+00 0.00000E+00 3.50000E+00
 -1        40 1.00000E+00 0.00000E+00 4.00000E+00
 -1        41 1.00000E+00 0.00000E+00 4.50000E+00
 -1        42 1.00000E+00 0.00000E+00 5.00000E+00
 -1        43 1.00000E+00 0.00000E+00 5.50000E+00
 -1        44 1.00000E+00 0.00000E+00 6.00000E+00
 -1        45 1.00000E+00 0.00000E+00 6.50000E+00
 -1        46 1.00000E+00 0.00000E+00 7.00000E+00
 -1        47 1.00000E+00 0.00000E+00 7.50000E+00
 -1        48 0.00000E+00 0.00000E+00 7.50000E+00
 -1        49 0.00000E+00 0.00000E+00 7.00000E+00
 -1        50 0.00000E+00 0.00000E+00 6.50000E+00
 -1        51 0.00000E+00 0.00000E+00 6.00000E+00
 -1        52 0.00000E+00 0.00000E+00 5.50000E+00
 -1        53 0.00000E+00 0.00000E+00 5.00000E+00
 -1        54 0.00000E+00 0.00000E+00 4.50000E+00
 -1        55 0.00000E+00 0.00000E+00 4.00000E+00
 -1        56 0.00000E+00 0.00000E+00 3.50000E+00
 -1        57 0.00000E+00 0.00000E+00 3.00000E+00
 -1        58 0.00000E+00 0.00000E+00 2.50000E+00
 -1        59 0.00000E+00 0.00000E+00 2.00000E+00
 -1        60 0.00000E+00 0.00000E+00 1.50000E+00
 -1        61 0.00000E+00 0.00000E+00 1.00000E+00
 -1        62 0.00000E+00 0.00000E+00 5.00000E-01
 -1        63 1.00000E+00 1.00000E+00 5.00000E-01
 -1        64 1.00000E+00 1.00000E+00 1.00000E+00
 -1        65 1.00000E+00 1.00000E+00 1.50000E+00
 -1        66 1.00000E+00 1.00000E+00 2.00000E+00
 -1        67 1.00000E+00 1.00000E+00 2.50000E+00
 -1        68 1.00000E+00 1.00000E+00 3.00000E+00
 -1        69 1.00000E+00 1.00000E+00 3.50000E+00
 -1        70 1.00000E+00 1.00000E+00 4.00000E+00
 -1        71 1.00000E+00 1.00000E+00 4.50000E+00
 -1        72 1.00000E+00 1.00000E+00 5.00000E+00
 -1        73 1.00000E+00 1.00000E+00 5.50000E+00
 -1        74 1.00000E+00 1.00000E+00 6.00000E+00
 -1        75 1.00000E+00 1.00000E+00 6.50000E+00
 -1        76 1.00000E+00 1.00000E+00 7.00000E+00
 -1        77 1.00000E+00 1.00000E+00 7.50000E+00
 -1        78 0.00000E+00 1.00000E+00 5.00000E-01
 -1        79 0.00000E+00 1.00000E+00 1.00000E+00
 -1        80 0.00000E+00 1.00000E+00 1.50000E+00
 -1        81 0.00000E+00 1.00000E+00 2.00000E+00
 -1        82 0.00000E+00 1.00000E+00 2.50000E+00
 -1        83 0.00000E+00 1.00000E+00 3.00000E+00
 -1        84 0.00000E+00 1.00000E+00 3.50000E+00
 -1        85 0.00000E+00 1.00000E+00 4.00000E+00
 -1        86 0.00000E+00 1.00000E+00 4.50000E+00
 -1        87 0.00000E+00 1.00000E+00 5.00000E+00
 -1        88 0.00000E+00 1.00000E+00 5.50000E+00
 -1        89 0.00000E+00 1.00000E+00 6.00000E+00
 -1        90 0.00000E+00 1.00000E+00 6.50000E+00
 -1        91 0.00000E+00 1.00000E+00 7.00000E+00
 -1        92 0.00000E+00 1.00000E+00 7.50000E+00
 -1        93 5.00000E-01 2.50000E-01 0.00000E+00
 -1        94 2.50000E-01 5.00000E-01 0.00000E+00
 -1        95 5.00000E-01 5.00000E-01 0.00000E+00
 -1        96 7.50000E-01 5.00000E-01 0.00000E+00
 -1        97 5.00000E-01 7.50000E-01 0.00000E+00
 -1        98 5.00000E-01 2.50000E-01 8.00000E+00
 -1        99 2.50000E-01 5.00000E-01 8.00000E+00
 -1       100 5.00000E-01 5.00000E-01 8.00000E+00
 -1       101 7.50000E-01 5.00000E-01 8.00000E+00
 -1       102 5.00000E-01 7.50000E-01 8.00000E+00
 -1       103 5.00000E-01 0.00000E+00 5.00000E-01
 -1       104 2.50000E-01 0.00000E+00 1.00000E+00
 -1       105 5.00000E-01 0.00000E+00 1.00000E+00
 -1       106 7.50000E-01 0.00000E+00 1.00000E+00
 -1       107 5.00000E-01 0.00000E+00 1.50000E+00
 -1       108 2.50000E-01 0.00000E+00 2.00000E+00
 -1       109 5.00000E-01 0.00000E+00 2.00000E+00
 -1       110 7.50000E-01 0.00000E+00 2.00000E+00
 -1       111 5.00000E-01 0.00000E+00 2.50000E+00
 -1       112 2.50000E-01 0.00000E+00 3.00000E+00
 -1       113 5.00000E-01 0.00000E+00 3.00000E+00
 -1       114 7.50000E-01 0.00000E+00 3.00000E+00
 -1       115 5.00000E-01 0.00000E+00 3.50000E+00
 -1       116 2.50000E-01 0.00000E+00 4.00000E+00
 -1       117 5.00000E-01 0.00000E+00 4.00000E+00
 -1       118 7.50000E-01 0.00000E+00 4.00000E+00
 -1       119 5.00000E-01 0.00000E+00 4.50000E+00
 -1       120 2.50000E-01 0.00000E+00 5.00000E+00
 -1       121 5.00000E-01 0.00000E+00 5.00000E+00
 -1       122 7.50000E-01 0.00000E+00 5.00000E+00
 -1       123 5.00000E-01 0.00000E+00 5.50000E+00
 -1       124 2.50000E-01 0.00000E+00 6.00000E+00
 -1       125 5.00000E-01 0.00000E+00 6.00000E+00
 -1       126 7.50000E-01 0.00000E+00 6.00000E+00
 -1       127 5.00000E-01 0.00000E+00 6.50000E+00
 -1       128 2.50000E-01 0.00000E+00 7.00000E+00
 -1       129 5.00000E-01 0.00000E+00 7.00000E+00
 -1       130 7.50000E-01 0.00000E+00 7.00000E+00
 -1       131 5.00000E-01 0.00000E+00 7.50000E+00
 -1       132 1.00000E+00 5.00000E-01 5.00000E-01
 -1       133 1.00000E+00 2.50000E-01 1.00000E+00
 -1       134 1.00000E+00 5.00000E-01 1.00000E+00
 -1       135 1.00000E+00 7.50000E-01 1.00000E+00
 -1       136 1.00000E+00 5.00000E-01 1.50000E+00
 -1       137 1.00000E+00 2.50000E-01 2.00000E+00
 -1       138 1.00000E+00 5.00000E-01 2.00000E+00
 -1       139 1.00000E+00 7.50000E-01 2.00000E+00
 -1       140 1.00000E+00 5.00000E-01 2.50000E+00
 -1       141 1.00000E+00 2.50000E-01 3.00000E+00
 -1       142 1.00000E+00 5.00000E-01 3.00000E+00
 -1       143 1.00000E+00 7.50000E-01 3.00000E+00
 -1       144 1.00000E+00 5.00000E-01 3.50000E+00
 -1       145 1.00000E+00 2.50000E-01 4.00000E+00
 -1       146 1.00000E+00 5.00000E-01 4.00000E+00
 -1       147 1.00000E+00 7.50000E-01 4.00000E+00
 -1       148 1.00000E+00 5.00000E-01 4.50000E+00
 -1       149 1.00000E+00 2.50000E-01 5.00000E+00
 -1       150 1.00000E+00 5.00000E-01 5.00000E+00
 -1       151 1.00000E+00 7.50000E-01 5.00000E+00
 -1       152 1.00000E+00 5.00000E-01 5.50000E+00
 -1       153 1.00000E+00 2.50000E-01 6.00000E+00
 -1       154 1.00000E+00 5.00000E-01 6.00000E+00
 -1       155 1.00000E+00 7.50000E-01 6.00000E+00
 -1       156 1.00000E+00 5.00000E-01 6.50000E+00
 -1       157 1.00000E+00 2.50000E-01 7.00000E+00
 -1       158 1.00000E+00 5.00000E-01 7.00000E+00
 -1       159 1.00000E+00 7.50000E-01 7.00000E+00
 -1       160 1.00000E+00 5.00000E-01 7.50000E+00
 -1       161 5.00000E-01 1.00000E+00 5.00000E-01
 -1       162 7.50000E-01 1.00000E+00 1.00000E+00
 -1       163 5.00000E-01 1.00000E+00 1.00000E+00
 -1       164 2.50000E-01 1.00000E+00 1.00000E+00
 -1       165 5.00000E-01 1.00000E+00 1.50000E+00
 -1       166 7.50000E-01 1.00000E+00 2.00000E+00
 -1       167 5.00000E-01 1.00000E+00 2.00000E+00
 -1       168 2.50000E-01 1.00000E+00 2.00000E+00
 -1       169 5.00000E-01 1.00000E+00 2.50000E+00
 -1       170 7.50000E-01 1.00000E+00 3.00000E+00
 -1       171 5.00000E-01 1.00000E+00 3.00000E+00
 -1       172 2.50000E-01 1.00000E+00 3.00000E+00
 -1       173 5.00000E-01 1.00000E+00 3.50000E+00
 -1       174 7.50000E-01 1.00000E+00 4.00000E+00
 -1       175 5.00000E-01 1.00000E+00 4.00000E+00
 -1       176 2.50000E-01 1.00000E+00 4.00000E+00
 -1       177 5.00000E-01 1.00000E+00 4.50000E+00
 -1       178 7.50000E-01 1.00000E+00 5.00000E+00
 -1       179 5.00000E-01 1.00000E+00 5.00000E+00
 -1       180 2.50000E-01 1.00000E+00 5.00000E+00
 -1       181 5.00000E-01 1.00000E+00 5.50000E+00
 -1       182 7.50000E-01 1.00000E+00 6.00000E+00
 -1       183 5.00000E-01 1.00000E+00 6.00000E+00
 -1       184 2.50000E-01 1.00000E+00 6.00000E+00
 -1       185 5.00000E-01 1.00000E+00 6.50000E+00
 -1       186 7.50000E-01 1.00000E+00 7.00000E+00
 -1       187 5.00000E-01 1.00000E+00 7.00000E+00
 -1       188 2.50000E-01 1.00000E+00 7.00000E+00
 -1       189 5.00000E-01 1.00000E+00 7.50000E+00
 -1       190 0.00000E+00 5.00000E-01 5.00000E-01
 -1       191 0.00000E+00 7.50000E-01 1.00000E+00
 -1       192 0.00000E+00 5.00000E-01 1.00000E+00
 -1       193 0.00000E+00 2.50000E-01 1.00000E+00
 -1       194 0.00000E+00 5.00000E-01 1.50000E+00
 -1       195 0.00000E+00 7.50000E-01 2.00000E+00
 -1       196 0.00000E+00 5.00000E-01 2.00000E+00
 -1       197 0.00000E+00 2.50000E-01 2.00000E+00
 -1       198 0.00000E+00 5.00000E-01 2.50000E+00
 -1       199 0.00000E+00 7.50000E-01 3.00000E+00
 -1       200 0.00000E+00 5.00000E-01 3.00000E+00
 -1       201 0.00000E+00 2.50000E-01 3.00000E+00
 -1       202 0.00000E+00 5.00000E-01 3.50000E+00
 -1       203 0.00000E+00 7.50000E-01 4.00000E+00
 -1       204 0.00000E+00 5.00000E-01 4.00000E+00
 -1       205 0.00000E+00 2.50000E-01 4.00000E+00
 -1       206 0.00000E+00 5.00000E-01 4.50000E+00
 -1       207 0.00000E+00 7.50000E-01 5.00000E+00
 -1       208 0.00000E+00 5.00000E-01 5.00000E+00
 -1       209 0.00000E+00 2.50000E-01 5.00000E+00
 -1       210 0.00000E+00 5.00000E-01 5.50000E+00
 -1       211 0.00000E+00 7.50000E-01 6.00000E+00
 -1       212 0.00000E+00 5.00000E-01 6.00000E+00
 -1       213 0.00000E+00 2.50000E-01 6.00000E+00
 -1       214 0.00000E+00 5.00000E-01 6.50000E+00
 -1       215 0.00000E+00 7.50000E-01 7.00000E+00
 -1       216 0.00000E+00 5.00000E-01 7.00000E+00
 -1       217 0.00000E+00 2.50000E-01 7.00000E+00
 -1       218 0.00000E+00 5.00000E-01 7.50000E+00
 -1       219 5.00000E-01 5.00000E-01 5.00000E-01
 -1       220 5.00000E-01 2.50000E-01 1.00000E+00
 -1       221 2.50000E-01 5.00000E-01 1.00000E+00
 -1       222 5.00000E-01 5.00000E-01 1.00000E+00
 -1       223 7.50000E-01 5.00000E-01 1.00000E+00
 -1       224 5.00000E-01 7.50000E-01 1.00000E+00
 -1       225 5.00000E-01 5.00000E-01 1.50000E+00
 -1       226 5.00000E-01 2.50000E-01 2.00000E+00
 -1       227 2.50000E-01 5.00000E-01 2.00000E+00
 -1       228 5.00000E-01 5.00000E-01 2.00000E+00
 -1       229 7.50000E-01 5.00000E-01 2.00000E+00
 -1       230 5.00000E-01 7.50000E-01 2.00000E+00
 -1       231 5.00000E-01 5.00000E-01 2.50000E+00
 -1       232 5.00000E-01 2.50000E-01 3.00000E+00
 -1       233 2.50000E-01 5.00000E-01 3.00000E+00
 -1       234 5.00000E-01 5.00000E-01 3.00000E+00
 -1       235 7.50000E-01 5.00000E-01 3.00000E+00
 -1       236 5.00000E-01 7.50000E-01 3.00000E+00
 -1       237 5.00000E-01 5.00000E-01 3.50000E+00
 -1       238 5.00000E-01 2.50000E-01 4.00000E+00
 -1       239 2.50000E-01 5.00000E-01 4.00000E+00
 -1       240 5.00000E-01 5.00000E-01 4.00000E+00
 -1       241 7.50000E-01 5.00000E-01 4.00000E+00
 -1       242 5.00000E-01 7.50000E-01 4.00000E+00
 -1       243 5.00000E-01 5.00000E-01 4.50000E+00
 -1       244 5.00000E-01 2.50000E-01 5.00000E+00
 -1       245 2.50000E-01 5.00000E-01 5.00000E+00
 -1       246 5.00000E-01 5.00000E-01 5.00000E+00
 -1       247 7.50000E-01 5.00000E-01 5.00000E+00
 -1       248 5.00000E-01 7.50000E-01 5.00000E+00
 -1       249 5.00000E-01 5.00000E-01 5.50000E+00
 -1       250 5.00000E-01 2.50000E-01 6.00000E+00
 -1       251 2.50000E-01 5.00000E-01 6.00000E+00
 -1       252 5.00000E-01 5.00000E-01 6.00000E+00
 -1       253 7.50000E-01 5.00000E-01 6.00000E+00
 -1       254 5.00000E-01 7.50000E-01 6.00000E+00
 -1       255 5.00000E-01 5.00000E-01 6.50000E+00
 -1       256 5.00000E-01 2.50000E-01 7.00000E+00
 -1       257 2.50000E-01 5.00000E-01 7.00000E+00
 -1       258 5.00000E-01 5.00000E-01 7.00000E+00
 -1       259 7.50000E-01 5.00000E-01 7.00000E+00
 -1       260 5.00000E-01 7.50000E-01 7.00000E+00
 -1       261 5.00000E-01 5.00000E-01 7.50000E+00
 -3
    3C                            32                                     1
 -1         1    4    0    1
 -2         1        10        95        19        61       105       222       192         9        93
 -2        94        20        62       103       219       190       104       220       221       193
 -1         2    4    0    1
 -2        10         2        13        95       105        34       134       222        11        12
 -2        96        93       103        33       132       219       106       133       223       220
 -1         3    4    0    1
 -2        19        95        16         4       192       222       163        79        94        97
 -2        17        18       190       219       161        78       221       224       164       191
 -1         4    4    0    1
 -2        95        13         3        16       222       134        64       163        96        14
 -2        15        97       219       132        63       161       223       135       162       224
 -1         5    4    0    1
 -2        61       105       222       192        59       109       228       196       104       220
 -2       221       193        60       107       225       194       108       226       227       197
 -1         6    4    0    1
 -2       105        34       134       222       109        36       138       228       106       133
 -2       223       220       107        35       136       225       110       137       229       226
 -1         7    4    0    1
 -2       192       222       163        79       196       228       167        81       221       224
 -2       164       191       194       225       165        80       227       230       168       195
 -1         8    4    0    1
 -2       222       134        64       163       228       138        66       167       223       135
 -2       162       224       225       136        65       165       229       139       166       230
 -1         9    4    0    1
 -2        59       109       228       196        57       113       234       200       108       226
 -2       227       197        58       111       231       198       112       232       233       201
 -1        10    4    0    1
 -2       109        36       138       228       113        38       142       234       110       137
 -2       229       226       111        37       140       231       114       141       235       232
 -1        11    4    0    1
 -2       196       228       167        81       200       234       171        83       227       230
 -2       168       195       198       231       169        82       233       236       172       199
 -1        12    4    0    1
 -2       228       138        66       167       234       142        68       171       229       139
 -2       166       230       231       140        67       169       235       143       170       236
 -1        13    4    0    1
 -2        57       113       234       200        55       117       240       204       112       232
 -2       233       201        56       115       237       202       116       238       239       205
 -1        14    4    0    1
 -2       113        38       142       234       117        40       146       240       114       141
 -2       235       232       115        39       144       237       118       145       241       238
 -1        15    4    0    1
 -2       200       234       171        83       204       240       175        85       233       236
 -2       172       199       202       237       173        84       239       242       176       203
 -1        16    4    0    1
 -2       234       142        68       171       240       146        70       175       235       143
 -2       170       236       237       144        69       173       241       147       174       242
 -1        17    4    0    1
 -2        55       117       240       204        53       121       246       208       116       238
 -2       239       205        54       119       243       206       120       244       245       209
 -1        18    4    0    1
 -2       117        40       146       240       121        42       150       246       118       145
 -2       241       238       119        41       148       243       122       149       247       244
 -1        19    4    0    1
 -2       204       240       175        85       208       246       179        87       239       242
 -2       176       203       206       243       177        86       245       248       180       207
 -1        20    4    0    1
 -2       240       146        70       175       246       150        72       179       241       147
 -2       174       242       243       148        71       177       247       151       178       248
 -1        21    4    0    1
 -2        53       121       246       208        51       125       252       212       120       244
 -2       245       209        52       123       249       210       124       250       251       213
 -1        22    4    0    1
 -2       121        42       150       246       125        44       154       252       122       149
 -2       247       244       123        43       152       249       126       153       253       250
 -1        23    4    0    1
 -2       208       246       179        87       212       252       183        89       245       248
 -2       180       207       210       249       181        88       251       254       184       211
 -1        24    4    0    1
 -2       246       150        72       179       252       154        74       183       247       151
 -2       178       248       249       152        73       181       253       155       182       254
 -1        25    4    0    1
 -2        51       125       252       212        49       129       258       216       124       250
 -2       251       213        50       127       255       214       128       256       257       217
 -1        26    4    0    1
 -2       125        44       154       252       129        46       158       258       126       153
 -2       253       250       127        45       156       255       130       157       259       256
 -1        27    4    0    1
 -2       212       252       183        89       216       258       187        91       251       254
 -2       184       211       214       255       185        90       257       260       188       215
 -1        28    4    0    1
 -2       252       154        74       183       258       158        76       187       253       155
 -2       182       254       255       156        75       185       259       159       186       260
 -1        29    4    0    1
 -2        49       129       258       216         5        22       100        31       128       256
 -2       257       217        48       131       261       218        21        98        99        32
 -1        30    4    0    1
 -2       129        46       158       258        22         6        25       100       130       157
 -2       259       256       131        47       160       261        23        24       101        98
 -1        31    4    0    1
 -2       216       258       187        91        31       100        28         8       257       260
 -2       188       215       218       261       189        92        99       102        29        30
 -1        32    4    0    1
 -2       258       158        76       187       100        25         7        28       259       159
 -2       186       260       261       160        77       189       101        26        27       102
 -3
    1PSTEP                         1           1           1          
  100CL  101 1.000000000         261                     0    1           1
 -4  TOSTRAIN    6    1
 -5  EXX         1    4    1    1
 -5  EYY         1    4    2    2
 -5  EZZ         1    4    3    3
 -5  EXY         1    4    1    2
 -5  EYZ         1    4    2    3
 -5  EZX         1    4    3    1
 -1         1 1.84667E-13 5.58453E-13-2.10961E-12 2.90582E-13 6.77559E-13-2.15192E-13
 -1         2 1.84777E-13 5.58313E-13-2.10947E-12-2.90641E-13 6.77639E-13 2.15198E-13
 -1         3 1.76560E-13 5.81764E-13-2.14399E-12 3.02847E-13-6.81806E-13 2.16842E-13
 -1         4 1.76697E-13 5.81287E-13-2.14498E-12-3.03033E-13-6.81947E-13-2.16636E-13
 -1         5-2.14068E-13-1.28858E-13 2.45217E-12 1.86544E-13 1.94274E-12 1.70319E-12
 -1         6-2.14637E-13-1.29778E-13 2.45157E-12-1.86339E-13 1.94281E-12-1.70329E-12
 -1         7-2.27017E-13-3.99750E-13 2.80480E-12 2.01809E-13-1.80221E-12-1.83417E-12
 -1         8-2.27492E-13-3.99621E-13 2.80549E-12-2.01708E-13-1.80228E-12 1.83412E-12
 -1         9 5.26205E-14 7.62826E-13-2.16459E-12 2.33433E-13 6.14251E-13-7.25428E-14
 -1        10-7.93445E-14 9.67244E-13-2.21958E-12 2.46081E-17 5.50937E-13-7.93836E-19
 -1        11 5.27568E-14 7.62800E-13-2.16453E-12-2.33438E-13 6.14284E-13 7.25445E-14
 -1        12-1.98403E-13-3.96963E-13 1.57123E-12 1.96317E-14-9.47070E-13-1.28256E-13
 -1        13-5.85156E-13-1.30791E-12 5.25941E-12-9.77507E-15 5.74434E-14-4.70917E-13
 -1        14-2.06084E-13-3.40914E-13 1.56145E-12-2.33037E-14 1.00243E-12-1.26642E-13
 -1        15 4.40387E-14 7.95351E-13-2.20583E-12 2.41328E-13-6.17962E-13 7.35086E-14
 -1        16-8.94321E-14 1.00883E-12-2.26771E-12 1.44417E-16-5.54057E-13-5.92624E-18
 -1        17 4.31577E-14 7.95004E-13-2.20637E-12-2.41276E-13-6.17972E-13-7.34118E-14
 -1        18-2.05998E-13-3.41258E-13 1.56116E-12 2.32647E-14 1.00238E-12 1.26721E-13
 -1        19-5.85086E-13-1.30776E-12 5.25986E-12 9.93086E-15 5.74414E-14 4.70912E-13
 -1        20-1.98407E-13-3.96631E-13 1.57141E-12-1.95592E-14-9.47130E-13 1.28276E-13
 -1        21-9.88426E-15 1.51384E-12-3.09259E-12 2.29217E-13-2.91348E-13-1.16095E-12
 -1        22 1.94116E-13 3.15670E-12-8.63736E-12-8.68350E-17-2.52545E-12 4.09200E-17
 -1        23-1.03521E-14 1.51354E-12-3.09290E-12-2.29201E-13-2.91328E-13 1.16094E-12
 -1        24 5.65042E-13 2.15747E-13-2.15130E-12-2.00797E-13-1.15799E-12 5.88670E-13
 -1        25 1.35506E-12 5.86908E-13-6.82707E-12 1.12713E-13-5.24004E-13 2.93779E-12
 -1        26 5.69192E-13 1.06397E-13-2.04758E-12 3.21245E-13 7.04287E-13 5.80390E-13
 -1        27-5.21684E-14 8.41036E-13-2.20194E-12 3.36152E-13 5.58374E-13 1.02005E-12
 -1        28 1.23049E-13 2.08183E-12-7.20868E-12-4.37664E-17 2.91896E-12 6.60765E-18
 -1        29-5.20368E-14 8.41109E-13-2.20160E-12-3.36146E-13 5.58342E-13-1.02007E-12
 -1        30 5.69179E-13 1.06630E-13-2.04720E-12-3.21309E-13 7.04273E-13-5.80361E-13
 -1        31 1.35544E-12 5.86872E-13-6.82696E-12-1.12800E-13-5.23958E-13-2.93767E-12
 -1        32 5.65486E-13 2.16002E-13-2.15093E-12 2.00927E-13-1.15800E-12-5.88652E-13
 -1        33-1.27032E-13-2.36144E-13 4.97461E-13-1.32626E-13-1.08170E-14-3.96888E-14
 -1        34-4.69538E-13-6.40426E-13 2.36177E-12 8.92155E-14-2.87511E-13-4.57141E-14
 -1        35-3.80183E-13-4.40904E-13 1.57200E-12 3.36938E-14 1.80284E-14 4.43118E-14
 -1        36-2.97395E-13-5.48015E-13 1.54594E-12-3.58747E-14-2.00963E-14-4.09946E-14
 -1        37-3.15531E-13-4.46441E-13 1.46267E-12 1.21576E-15 3.10375E-14 4.30012E-15
 -1        38-2.95317E-13-4.25680E-13 1.37252E-12-9.15054E-15-1.04914E-14 9.55128E-15
 -1        39-2.78061E-13-3.97489E-13 1.25822E-12 9.05410E-15 1.92321E-14-6.07174E-15
 -1        40-2.42129E-13-3.51092E-13 1.16269E-12-1.76578E-14 1.13335E-14 8.40931E-15
 -1        41-2.29098E-13-3.12567E-13 1.02652E-12 8.81701E-15 2.94777E-16 5.71241E-15
 -1        42-1.77805E-13-2.41126E-13 8.79639E-13-6.09193E-14-1.05787E-13 1.01043E-13
 -1        43-1.94549E-13-3.10490E-13 8.34384E-13 5.67148E-14 1.44715E-13-9.55135E-14
 -1        44-1.72783E-13-3.19962E-13 5.43563E-13-1.19581E-13 2.14129E-13-1.55602E-13
 -1        45-7.86301E-14 2.43182E-15 7.89860E-13 3.27212E-14-3.74806E-13 2.91950E-13
 -1        46-9.53104E-14-2.16574E-13-9.90385E-14 1.47719E-13-2.86767E-13 3.96763E-13
 -1        47-1.62123E-13-3.87005E-13 4.97031E-13-2.54329E-13 9.97349E-13-6.75589E-13
 -1        48-1.61968E-13-3.86611E-13 4.97198E-13 2.54158E-13 9.97335E-13 6.75565E-13
 -1        49-9.53558E-14-2.16746E-13-9.90844E-14-1.48158E-13-2.86779E-13-3.96573E-13
 -1        50-7.87469E-14 2.26779E-15 7.89844E-13-3.28356E-14-3.74816E-13-2.91924E-13
 -1        51-1.73462E-13-3.20044E-13 5.43368E-13 1.19612E-13 2.14242E-13 1.55328E-13
 -1        52-1.95167E-13-3.10920E-13 8.34585E-13-5.67112E-14 1.44802E-13 9.54374E-14
 -1        53-1.77904E-13-2.41728E-13 8.79736E-13 6.10511E-14-1.05668E-13-1.00926E-13
 -1        54-2.28790E-13-3.12382E-13 1.02676E-12-8.71782E-15 2.66921E-16-5.68588E-15
 -1        55-2.41514E-13-3.50569E-13 1.16273E-12 1.75375E-14 1.09830E-14-8.33601E-15
 -1        56-2.77449E-13-3.97185E-13 1.25800E-12-9.06780E-15 1.91646E-14 6.12963E-15
 -1        57-2.95025E-13-4.25306E-13 1.37226E-12 9.29773E-15-1.03195E-14-9.61477E-15
 -1        58-3.15337E-13-4.46173E-13 1.46231E-12-1.10841E-15 3.10855E-14-4.26367E-15
 -1        59-2.97054E-13-5.47872E-13 1.54610E-12 3.59691E-14-2.01167E-14 4.09385E-14
 -1        60-3.80368E-13-4.41117E-13 1.57195E-12-3.36847E-14 1.81047E-14-4.43837E-14
 -1        61-4.70221E-13-6.40984E-13 2.36182E-12-8.92354E-14-2.87393E-13 4.57319E-14
 -1        62-1.27410E-13-2.36329E-13 4.97557E-13 1.32605E-13-1.08443E-14 3.96705E-14
 -1        63-1.54530E-13-2.85187E-13 6.20989E-13 1.38054E-13 5.19629E-14-4.35020E-14
 -1        64-5.21934E-13-7.21778E-13 2.61738E-12-9.23576E-14 3.21114E-13-5.15428E-14
 -1        65-4.68638E-13-5.53962E-13 1.96889E-12-3.53327E-14-1.04585E-15 4.21492E-14
 -1        66-4.15699E-13-7.22609E-13 2.09889E-12 3.67754E-14 5.63258E-14-4.51140E-14
 -1        67-4.74329E-13-6.71728E-13 2.19299E-12-4.74912E-16-5.22727E-15-4.61809E-16
 -1        68-4.95013E-13-7.07883E-13 2.28988E-12 8.60899E-15 3.48634E-14 5.77112E-15
 -1        69-5.25540E-13-7.44914E-13 2.39492E-12-9.43051E-15 3.61127E-15-1.19605E-14
 -1        70-5.37430E-13-7.67058E-13 2.52208E-12 1.47514E-14 1.27796E-14 2.23706E-15
 -1        71-5.76467E-13-8.08367E-13 2.62903E-12-5.24098E-15 1.85880E-14 1.73316E-15
 -1        72-5.79737E-13-8.09900E-13 2.72134E-12 6.10643E-14 1.23262E-13 9.84014E-14
 -1        73-6.47946E-13-9.39081E-13 2.90330E-12-6.18552E-14-1.11611E-13-1.06196E-13
 -1        74-6.82242E-13-9.97633E-13 2.80697E-12 8.83614E-14-1.65117E-13-1.80384E-13
 -1        75-5.80209E-13-7.85487E-13 3.21599E-12 1.02440E-14 3.66538E-13 3.19631E-13
 -1        76-7.09099E-13-1.03197E-12 2.69262E-12-1.47036E-13 3.17135E-13 3.99136E-13
 -1        77-5.38724E-13-8.79096E-13 2.15346E-12 1.86532E-13-8.64463E-13-7.81552E-13
 -1        78-1.53974E-13-2.85143E-13 6.21130E-13-1.38244E-13 5.19653E-14 4.35303E-14
 -1        79-5.21085E-13-7.21289E-13 2.61807E-12 9.22586E-14 3.21192E-13 5.13943E-14
 -1        80-4.68596E-13-5.54062E-13 1.96865E-12 3.53972E-14-1.08748E-15-4.21770E-14
 -1        81-4.16280E-13-7.23164E-13 2.09879E-12-3.67273E-14 5.62423E-14 4.50958E-14
 -1        82-4.74427E-13-6.72013E-13 2.19279E-12 4.59135E-16-5.27255E-15 4.29752E-16
 -1        83-4.94619E-13-7.07891E-13 2.28958E-12-8.63523E-15 3.49281E-14-5.76306E-15
 -1        84-5.25647E-13-7.45040E-13 2.39477E-12 9.36229E-15 3.68700E-15 1.19945E-14
 -1        85-5.38205E-13-7.67516E-13 2.52173E-12-1.47432E-14 1.27455E-14-2.20873E-15
 -1        86-5.76690E-13-8.08732E-13 2.62927E-12 5.23334E-15 1.86163E-14-1.69219E-15
 -1        87-5.79421E-13-8.09938E-13 2.72175E-12-6.11816E-14 1.23312E-13-9.82360E-14
 -1        88-6.48014E-13-9.39163E-13 2.90338E-12 6.18364E-14-1.11674E-13 1.06121E-13
 -1        89-6.82457E-13-9.97854E-13 2.80707E-12-8.83830E-14-1.65224E-13 1.80137E-13
 -1        90-5.80024E-13-7.85668E-13 3.21597E-12-1.04074E-14 3.66486E-13-3.19649E-13
 -1        91-7.08653E-13-1.03202E-12 2.69244E-12 1.46824E-13 3.17186E-13-3.99025E-13
 -1        92-5.38746E-13-8.79018E-13 2.15373E-12-1.86595E-13-8.64453E-13 7.81579E-13
 -1        93-3.30439E-13 5.36415E-14 1.50564E-12-3.34849E-17-9.19874E-13-1.34966E-17