    1C
    1UModel: beam     Date: 10-Mar-1998                                 
    1UUSER                                                              
    1UDATE              22.december.2022                                
    1UTIME              14:07:36                                        
    1UHOST                                                              
    1UPGM               CalculiX                                        
    1UVERSION           Version DEVELOPMENT                             
    1UCOMPILETIME       Wed Dec 14 19:19:22 CET 2022                    
    1UDIR                                                               
    1UDBN                                                               
    1UMAT    1EL                                                        
    1UMAT    2UNDO_NLGEOM_LIN_EL_1                                      
    2C                           261                                     1
 -1         1 0.00000E+00 0.00000E+00 0.00000E+00
 -1         2 1.00000E+00 0.00000E+00 0.00000E+00
 -1         3 1.00000E+00 1.00000E+00 0.00000E+00
 -1         4 0.00000E+00 1.00000E+00 0.00000E+00
 -1         5 0.00000E+00 0.00000E+00 8.00000E+00
 -1         6 1.00000E+00 0.00000E+00 8.00000E+00
 -1         7 1.00000E+00 1.00000E+00 8.00000E+00
 -1         8 0.00000E+00 1.00000E+00 8.00000E+00
 -1         9 2.50000E-01 0.00000E+00 0.00000E+00
 -1        10 5.00000E-01 0.00000E+00 0.00000E+00
 -1        11 7.50000E-01 0.00000E+00 0.00000E+00
 -1        12 1.00000E+00 2.50000E-01 0.00000E+00
 -1        13 1.00000E+00 5.00000E-01 0.00000E+00
 -1        14 1.00000E+00 7.50000E-01 0.00000E+00
 -1        15 7.50000E-01 1.00000E+00 0.00000E+00
 -1        16 5.00000E-01 1.00000E+00 0.00000E+00
 -1        17 2.50000E-01 1.00000E+00 0.00000E+00
 -1        18 0.00000E+00 7.50000E-01 0.00000E+00
 -1        19 0.00000E+00 5.00000E-01 0.00000E+00
 -1        20 0.00000E+00 2.50000E-01 0.00000E+00
 -1        21 2.50000E-01 0.00000E+00 8.00000E+00
 -1        22 5.00000E-01 0.00000E+00 8.00000E+00
 -1        23 7.50000E-01 0.00000E+00 8.00000E+00
 -1        24 1.00000E+00 2.50000E-01 8.00000E+00
 -1        25 1.00000E+00 5.00000E-01 8.00000E+00
 -1        26 1.00000E+00 7.50000E-01 8.00000E+00
 -1        27 7.50000E-01 1.00000E+00 8.00000E+00
 -1        28 5.00000E-01 1.00000E+00 8.00000E+00
 -1        29 2.50000E-01 1.00000E+00 8.00000E+00
 -1        30 0.00000E+00 7.50000E-01 8.00000E+00
 -1        31 0.00000E+00 5.00000E-01 8.00000E+00
 -1        32 0.00000E+00 2.50000E-01 8.00000E+00
 -1        33 1.00000E+00 0.00000E+00 5.00000E-01
 -1        34 1.00000E+00 0.00000E+00 1.00000E+00
 -1        35 1.00000E+00 0.00000E+00 1.50000E+00
 -1        36 1.00000E+00 0.00000E+00 2.00000E+00
 -1        37 1.00000E+00 0.00000E+00 2.50000E+00
 -1        38 1.00000E+00 0.00000E+00 3.00000E+00
 -1        39 1.00000E+00 0.00000E+00 3.50000E+00
 -1        40 1.00000E+00 0.00000E+00 4.00000E+00
 -1        41 1.00000E+00 0.00000E+00 4.50000E+00
 -1        42 1.00000E+00 0.00000E+00 5.00000E+00
 -1        43 1.00000E+00 0.00000E+00 5.50000E+00
 -1        44 1.00000E+00 0.00000E+00 6.00000E+00
 -1        45 1.00000E+00 0.00000E+00 6.50000E+00
 -1        46 1.00000E+00 0.00000E+00 7.00000E+00
 -1        47 1.00000E+00 0.00000E+00 7.50000E+00
 -1        48 0.00000E+00 0.00000E+00 7.50000E+00
 -1        49 0.00000E+00 0.00000E+00 7.00000E+00
 -1        50 0.00000E+00 0.00000E+00 6.50000E+00
 -1        51 0.00000E+00 0.00000E+00 6.00000E+00
 -1        52 0.00000E+00 0.00000E+00 5.50000E+00
 -1        53 0.00000E+00 0.00000E+00 5.00000E+00
 -1        54 0.00000E+00 0.00000E+00 4.50000E+00
 -1        55 0.00000E+00 0.00000E+00 4.00000E+00
 -1        56 0.00000E+00 0.00000E+00 3.50000E+00
 -1        57 0.00000E+00 0.00000E+00 3.00000E+00
 -1        58 0.00000E+00 0.00000E+00 2.50000E+00
 -1        59 0.00000E+00 0.00000E+00 2.00000E+00
 -1        60 0.00000E+00 0.00000E+00 1.50000E+00
 -1        61 0.00000E+00 0.00000E+00 1.00000E+00
 -1        62 0.00000E+00 0.00000E+00 5.00000E-01
 -1        63 1.00000E+00 1.00000E+00 5.00000E-01
 -1        64 1.00000E+00 1.00000E+00 1.00000E+00
 -1        65 1.00000E+00 1.00000E+00 1.50000E+00
 -1        66 1.00000E+00 1.00000E+00 2.00000E+00
 -1        67 1.00000E+00 1.00000E+00 2.50000E+00
 -1        68 1.00000E+00 1.00000E+00 3.00000E+00
 -1        69 1.00000E+00 1.00000E+00 3.50000E+00
 -1        70 1.00000E+00 1.00000E+00 4.00000E+00
 -1        71 1.00000E+00 1.00000E+00 4.50000E+00
 -1        72 1.00000E+00 1.00000E+00 5.00000E+00
 -1        73 1.00000E+00 1.00000E+00 5.50000E+00
 -1        74 1.00000E+00 1.00000E+00 6.00000E+00
 -1        75 1.00000E+00 1.00000E+00 6.50000E+00
 -1        76 1.00000E+00 1.00000E+00 7.00000E+00
 -1        77 1.00000E+00 1.00000E+00 7.50000E+00
 -1        78 0.00000E+00 1.00000E+00 5.00000E-01
 -1        79 0.00000E+00 1.00000E+00 1.00000E+00
 -1        80 0.00000E+00 1.00000E+00 1.50000E+00
 -1        81 0.00000E+00 1.00000E+00 2.00000E+00
 -1        82 0.00000E+00 1.00000E+00 2.50000E+00
 -1        83 0.00000E+00 1.00000E+00 3.00000E+00
 -1        84 0.00000E+00 1.00000E+00 3.50000E+00
 -1        85 0.00000E+00 1.00000E+00 4.00000E+00
 -1        86 0.00000E+00 1.00000E+00 4.50000E+00
 -1        87 0.00000E+00 1.00000E+00 5.00000E+00
 -1        88 0.00000E+00 1.00000E+00 5.50000E+00
 -1        89 0.00000E+00 1.00000E+00 6.00000E+00
 -1        90 0.00000E+00 1.00000E+00 6.50000E+00
 -1        91 0.00000E+00 1.00000E+00 7.00000E+00
 -1        92 0.00000E+00 1.00000E+00 7.50000E+00
 -1        93 5.00000E-01 2.50000E-01 0.00000E+00
 -1        94 2.50000E-01 5.00000E-01 0.00000E+00
 -1        95 5.00000E-01 5.00000E-01 0.00000E+00
 -1        96 7.50000E-01 5.00000E-01 0.00000E+00
 -1        97 5.00000E-01 7.50000E-01 0.00000E+00
 -1        98 5.00000E-01 2.50000E-01 8.00000E+00
 -1        99 2.50000E-01 5.00000E-01 8.00000E+00
 -1       100 5.00000E-01 5.00000E-01 8.00000E+00
 -1       101 7.50000E-01 5.00000E-01 8.00000E+00
 -1       102 5.00000E-01 7.50000E-01 8.00000E+00
 -1       103 5.00000E-01 0.00000E+00 5.00000E-01
 -1       104 2.50000E-01 0.00000E+00 1.00000E+00
 -1       105 5.00000E-01 0.00000E+00 1.00000E+00
 -1       106 7.50000E-01 0.00000E+00 1.00000E+00
 -1       107 5.00000E-01 0.00000E+00 1.50000E+00
 -1       108 2.50000E-01 0.00000E+00 2.00000E+00
 -1       109 5.00000E-01 0.00000E+00 2.00000E+00
 -1       110 7.50000E-01 0.00000E+00 2.00000E+00
 -1       111 5.00000E-01 0.00000E+00 2.50000E+00
 -1       112 2.50000E-01 0.00000E+00 3.00000E+00
 -1       113 5.00000E-01 0.00000E+00 3.00000E+00
 -1       114 7.50000E-01 0.00000E+00 3.00000E+00
 -1       115 5.00000E-01 0.00000E+00 3.50000E+00
 -1       116 2.50000E-01 0.00000E+00 4.00000E+00
 -1       117 5.00000E-01 0.00000E+00 4.00000E+00
 -1       118 7.50000E-01 0.00000E+00 4.00000E+00
 -1       119 5.00000E-01 0.00000E+00 4.50000E+00
 -1       120 2.50000E-01 0.00000E+00 5.00000E+00
 -1       121 5.00000E-01 0.00000E+00 5.00000E+00
 -1       122 7.50000E-01 0.00000E+00 5.00000E+00
 -1       123 5.00000E-01 0.00000E+00 5.50000E+00
 -1       124 2.50000E-01 0.00000E+00 6.00000E+00
 -1       125 5.00000E-01 0.00000E+00 6.00000E+00
 -1       126 7.50000E-01 0.00000E+00 6.00000E+00
 -1       127 5.00000E-01 0.00000E+00 6.50000E+00
 -1       128 2.50000E-01 0.00000E+00 7.00000E+00
 -1       129 5.00000E-01 0.00000E+00 7.00000E+00
 -1       130 7.50000E-01 0.00000E+00 7.00000E+00
 -1       131 5.00000E-01 0.00000E+00 7.50000E+00
 -1       132 1.00000E+00 5.00000E-01 5.00000E-01
 -1       133 1.00000E+00 2.50000E-01 1.00000E+00
 -1       134 1.00000E+00 5.00000E-01 1.00000E+00
 -1       135 1.00000E+00 7.50000E-01 1.00000E+00
 -1       136 1.00000E+00 5.00000E-01 1.50000E+00
 -1       137 1.00000E+00 2.50000E-01 2.00000E+00
 -1       138 1.00000E+00 5.00000E-01 2.00000E+00
 -1       139 1.00000E+00 7.50000E-01 2.00000E+00
 -1       140 1.00000E+00 5.00000E-01 2.50000E+00
 -1       141 1.00000E+00 2.50000E-01 3.00000E+00
 -1       142 1.00000E+00 5.00000E-01 3.00000E+00
 -1       143 1.00000E+00 7.50000E-01 3.00000E+00
 -1       144 1.00000E+00 5.00000E-01 3.50000E+00
 -1       145 1.00000E+00 2.50000E-01 4.00000E+00
 -1       146 1.00000E+00 5.00000E-01 4.00000E+00
 -1       147 1.00000E+00 7.50000E-01 4.00000E+00
 -1       148 1.00000E+00 5.00000E-01 4.50000E+00
 -1       149 1.00000E+00 2.50000E-01 5.00000E+00
 -1       150 1.00000E+00 5.00000E-01 5.00000E+00
 -1       151 1.00000E+00 7.50000E-01 5.00000E+00
 -1       152 1.00000E+00 5.00000E-01 5.50000E+00
 -1       153 1.00000E+00 2.50000E-01 6.00000E+00
 -1       154 1.00000E+00 5.00000E-01 6.00000E+00
 -1       155 1.00000E+00 7.50000E-01 6.00000E+00
 -1       156 1.00000E+00 5.00000E-01 6.50000E+00
 -1       157 1.00000E+00 2.50000E-01 7.00000E+00
 -1       158 1.00000E+00 5.00000E-01 7.00000E+00
 -1       159 1.00000E+00 7.50000E-01 7.00000E+00
 -1       160 1.00000E+00 5.00000E-01 7.50000E+00
 -1       161 5.00000E-01 1.00000E+00 5.00000E-01
 -1       162 7.50000E-01 1.00000E+00 1.00000E+00
 -1       163 5.00000E-01 1.00000E+00 1.00000E+00
 -1       164 2.50000E-01 1.00000E+00 1.00000E+00
 -1       165 5.00000E-01 1.00000E+00 1.50000E+00
 -1       166 7.50000E-01 1.00000E+00 2.00000E+00
 -1       167 5.00000E-01 1.00000E+00 2.00000E+00
 -1       168 2.50000E-01 1.00000E+00 2.00000E+00
 -1       169 5.00000E-01 1.00000E+00 2.50000E+00
 -1       170 7.50000E-01 1.00000E+00 3.00000E+00
 -1       171 5.00000E-01 1.00000E+00 3.00000E+00
 -1       172 2.50000E-01 1.00000E+00 3.00000E+00
 -1       173 5.00000E-01 1.00000E+00 3.50000E+00
 -1       174 7.50000E-01 1.00000E+00 4.00000E+00
 -1       175 5.00000E-01 1.00000E+00 4.00000E+00
 -1       176 2.50000E-01 1.00000E+00 4.00000E+00
 -1       177 5.00000E-01 1.00000E+00 4.50000E+00
 -1       178 7.50000E-01 1.00000E+00 5.00000E+00
 -1       179 5.00000E-01 1.00000E+00 5.00000E+00
 -1       180 2.50000E-01 1.00000E+00 5.00000E+00
 -1       181 5.00000E-01 1.00000E+00 5.50000E+00
 -1       182 7.50000E-01 1.00000E+00 6.00000E+00
 -1       183 5.00000E-01 1.00000E+00 6.00000E+00
 -1       184 2.50000E-01 1.00000E+00 6.00000E+00
 -1       185 5.00000E-01 1.00000E+00 6.50000E+00
 -1       186 7.50000E-01 1.00000E+00 7.00000E+00
 -1       187 5.00000E-01 1.00000E+00 7.00000E+00
 -1       188 2.50000E-01 1.00000E+00 7.00000E+00
 -1       189 5.00000E-01 1.00000E+00 7.50000E+00
 -1       190 0.00000E+00 5.00000E-01 5.00000E-01
 -1       191 0.00000E+00 7.50000E-01 1.00000E+00
 -1       192 0.00000E+00 5.00000E-01 1.00000E+00
 -1       193 0.00000E+00 2.50000E-01 1.00000E+00
 -1       194 0.00000E+00 5.00000E-01 1.50000E+00
 -1       195 0.00000E+00 7.50000E-01 2.00000E+00
 -1       196 0.00000E+00 5.00000E-01 2.00000E+00
 -1       197 0.00000E+00 2.50000E-01 2.00000E+00
 -1       198 0.00000E+00 5.00000E-01 2.50000E+00
 -1       199 0.00000E+00 7.50000E-01 3.00000E+00
 -1       200 0.00000E+00 5.00000E-01 3.00000E+00
 -1       201 0.00000E+00 2.50000E-01 3.00000E+00
 -1       202 0.00000E+00 5.00000E-01 3.50000E+00
 -1       203 0.00000E+00 7.50000E-01 4.00000E+00
 -1       204 0.00000E+00 5.00000E-01 4.00000E+00
 -1       205 0.00000E+00 2.50000E-01 4.00000E+00
 -1       206 0.00000E+00 5.00000E-01 4.50000E+00
 -1       207 0.00000E+00 7.50000E-01 5.00000E+00
 -1       208 0.00000E+00 5.00000E-01 5.00000E+00
 -1       209 0.00000E+00 2.50000E-01 5.00000E+00
 -1       210 0.00000E+00 5.00000E-01 5.50000E+00
 -1       211 0.00000E+00 7.50000E-01 6.00000E+00
 -1       212 0.00000E+00 5.00000E-01 6.00000E+00
 -1       213 0.00000E+00 2.50000E-01 6.00000E+00
 -1       214 0.00000E+00 5.00000E-01 6.50000E+00
 -1       215 0.00000E+00 7.50000E-01 7.00000E+00
 -1       216 0.00000E+00 5.00000E-01 7.00000E+00
 -1       217 0.00000E+00 2.50000E-01 7.00000E+00
 -1       218 0.00000E+00 5.00000E-01 7.50000E+00
 -1       219 5.00000E-01 5.00000E-01 5.00000E-01
 -1       220 5.00000E-01 2.50000E-01 1.00000E+00
 -1       221 2.50000E-01 5.00000E-01 1.00000E+00
 -1       222 5.00000E-01 5.00000E-01 1.00000E+00
 -1       223 7.50000E-01 5.00000E-01 1.00000E+00
 -1       224 5.00000E-01 7.50000E-01 1.00000E+00
 -1       225 5.00000E-01 5.00000E-01 1.50000E+00
 -1       226 5.00000E-01 2.50000E-01 2.00000E+00
 -1       227 2.50000E-01 5.00000E-01 2.00000E+00
 -1       228 5.00000E-01 5.00000E-01 2.00000E+00
 -1       229 7.50000E-01 5.00000E-01 2.00000E+00
 -1       230 5.00000E-01 7.50000E-01 2.00000E+00
 -1       231 5.00000E-01 5.00000E-01 2.50000E+00
 -1       232 5.00000E-01 2.50000E-01 3.00000E+00
 -1       233 2.50000E-01 5.00000E-01 3.00000E+00
 -1       234 5.00000E-01 5.00000E-01 3.00000E+00
 -1       235 7.50000E-01 5.00000E-01 3.00000E+00
 -1       236 5.00000E-01 7.50000E-01 3.00000E+00
 -1       237 5.00000E-01 5.00000E-01 3.50000E+00
 -1       238 5.00000E-01 2.50000E-01 4.00000E+00
 -1       239 2.50000E-01 5.00000E-01 4.00000E+00
 -1       240 5.00000E-01 5.00000E-01 4.00000E+00
 -1       241 7.50000E-01 5.00000E-01 4.00000E+00
 -1       242 5.00000E-01 7.50000E-01 4.00000E+00
 -1       243 5.00000E-01 5.00000E-01 4.50000E+00
 -1       244 5.00000E-01 2.50000E-01 5.00000E+00
 -1       245 2.50000E-01 5.00000E-01 5.00000E+00
 -1       246 5.00000E-01 5.00000E-01 5.00000E+00
 -1       247 7.50000E-01 5.00000E-01 5.00000E+00
 -1       248 5.00000E-01 7.50000E-01 5.00000E+00
 -1       249 5.00000E-01 5.00000E-01 5.50000E+00
 -1       250 5.00000E-01 2.50000E-01 6.00000E+00
 -1       251 2.50000E-01 5.00000E-01 6.00000E+00
 -1       252 5.00000E-01 5.00000E-01 6.00000E+00
 -1       253 7.50000E-01 5.00000E-01 6.00000E+00
 -1       254 5.00000E-01 7.50000E-01 6.00000E+00
 -1       255 5.00000E-01 5.00000E-01 6.50000E+00
 -1       256 5.00000E-01 2.50000E-01 7.00000E+00
 -1       257 2.50000E-01 5.00000E-01 7.00000E+00
 -1       258 5.00000E-01 5.00000E-01 7.00000E+00
 -1       259 7.50000E-01 5.00000E-01 7.00000E+00
 -1       260 5.00000E-01 7.50000E-01 7.00000E+00
 -1       261 5.00000E-01 5.00000E-01 7.50000E+00
 -3
    3C                            32                                     1
 -1         1    4    0    2
 -2         1        10        95        19        61       105       222       192         9        93
 -2        94        20        62       103       219       190       104       220       221       193
 -1         2    4    0    2
 -2        10         2        13        95       105        34       134       222        11        12
 -2        96        93       103        33       132       219       106       133       223       220
 -1         3    4    0    2
 -2        19        95        16         4       192       222       163        79        94        97
 -2        17        18       190       219       161        78       221       224       164       191
 -1         4    4    0    2
 -2        95        13         3        16       222       134        64       163        96        14
 -2        15        97       219       132        63       161       223       135       162       224
 -1         5    4    0    2
 -2        61       105       222       192        59       109       228       196       104       220
 -2       221       193        60       107       225       194       108       226       227       197
 -1         6    4    0    2
 -2       105        34       134       222       109        36       138       228       106       133
 -2       223       220       107        35       136       225       110       137       229       226
 -1         7    4    0    2
 -2       192       222       163        79       196       228       167        81       221       224
 -2       164       191       194       225       165        80       227       230       168       195
 -1         8    4    0    2
 -2       222       134        64       163       228       138        66       167       223       135
 -2       162       224       225       136        65       165       229       139       166       230
 -1         9    4    0    2
 -2        59       109       228       196        57       113       234       200       108       226
 -2       227       197        58       111       231       198       112       232       233       201
 -1        10    4    0    2
 -2       109        36       138       228       113        38       142       234       110       137
 -2       229       226       111        37       140       231       114       141       235       232
 -1        11    4    0    2
 -2       196       228       167        81       200       234       171        83       227       230
 -2       168       195       198       231       169        82       233       236       172       199
 -1        12    4    0    2
 -2       228       138        66       167       234       142        68       171       229       139
 -2       166       230       231       140        67       169       235       143       170       236
 -1        13    4    0    2
 -2        57       113       234       200        55       117       240       204       112       232
 -2       233       201        56       115       237       202       116       238       239       205
 -1        14    4    0    2
 -2       113        38       142       234       117        40       146       240       114       141
 -2       235       232       115        39       144       237       118       145       241       238
 -1        15    4    0    2
 -2       200       234       171        83       204       240       175        85       233       236
 -2       172       199       202       237       173        84       239       242       176       203
 -1        16    4    0    2
 -2       234       142        68       171       240       146        70       175       235       143
 -2       170       236       237       144        69       173       241       147       174       242
 -1        17    4    0    2
 -2        55       117       240       204        53       121       246       208       116       238
 -2       239       205        54       119       243       206       120       244       245       209
 -1        18    4    0    2
 -2       117        40       146       240       121        42       150       246       118       145
 -2       241       238       119        41       148       243       122       149       247       244
 -1        19    4    0    2
 -2       204       240       175        85       208       246       179        87       239       242
 -2       176       203       206       243       177        86       245       248       180       207
 -1        20    4    0    2
 -2       240       146        70       175       246       150        72       179       241       147
 -2       174       242       243       148        71       177       247       151       178       248
 -1        21    4    0    2
 -2        53       121       246       208        51       125       252       212       120       244
 -2       245       209        52       123       249       210       124       250       251       213
 -1        22    4    0    2
 -2       121        42       150       246       125        44       154       252       122       149
 -2       247       244       123        43       152       249       126       153       253       250
 -1        23    4    0    2
 -2       208       246       179        87       212       252       183        89       245       248
 -2       180       207       210       249       181        88       251       254       184       211
 -1        24    4    0    2
 -2       246       150        72       179       252       154        74       183       247       151
 -2       178       248       249       152        73       181       253       155       182       254
 -1        25    4    0    2
 -2        51       125       252       212        49       129       258       216       124       250
 -2       251       213        50       127       255       214       128       256       257       217
 -1        26    4    0    2
 -2       125        44       154       252       129        46       158       258       126       153
 -2       253       250       127        45       156       255       130       157       259       256
 -1        27    4    0    2
 -2       212       252       183        89       216       258       187        91       251       254
 -2       184       211       214       255       185        90       257       260       188       215
 -1        28    4    0    2
 -2       252       154        74       183       258       158        76       187       253       155
 -2       182       254       255       156        75       185       259       159       186       260
 -1        29    4    0    2
 -2        49       129       258       216         5        22       100        31       128       256
 -2       257       217        48       131       261       218        21        98        99        32
 -1        30    4    0    2
 -2       129        46       158       258        22         6        25       100       130       157
 -2       259       256       131        47       160       261        23        24       101        98
 -1        31    4    0    2
 -2       216       258       187        91        31       100        28         8       257       260
 -2       188       215       218       261       189        92        99       102        29        30
 -1        32    4    0    2
 -2       258       158        76       187       100        25         7        28       259       159
 -2       186       260       261       160        77       189       101        26        27       102
 -3
    1PSTEP                         1           6           1          
  100CL  101 1.000000000         261                     0    1           1
 -4  DISP        4    1
 -5  D1          1    2    1    0
 -5  D2          1    2    2    0
 -5  D3          1    2    3    0
 -5  ALL         1    2    0    0    1ALL
 -1         1-1.02849E-05 2.01754E-02 1.40832E-01
 -1         2 1.02849E-05 2.01754E-02 1.40832E-01
 -1         3 1.02849E-05-1.97404E-02-1.39341E-01
 -1         4-1.02849E-05-1.97404E-02-1.39341E-01
 -1         5 7.13797E-05 2.26238E+00-1.76192E-01
 -1         6-7.13797E-05 2.26238E+00-1.76192E-01
 -1         7-7.13796E-05 2.22220E+00-4.56290E-01
 -1         8 7.13796E-05 2.22220E+00-4.56290E-01
 -1         9 2.58755E-06 2.01032E-02 1.40856E-01
 -1        10-1.07786E-16 2.01054E-02 1.40870E-01
 -1        11-2.58755E-06 2.01032E-02 1.40856E-01
 -1        12-5.08818E-05 1.01454E-02 7.05002E-02
 -1        13 0.00000E+00 0.00000E+00 0.00000E+00
 -1        14-5.08818E-05-9.87355E-03-6.95687E-02
 -1        15-2.58755E-06-1.96667E-02-1.39360E-01
 -1        16-5.53053E-17-1.96612E-02-1.39348E-01
 -1        17 2.58755E-06-1.96667E-02-1.39360E-01
 -1        18 5.08818E-05-9.87355E-03-6.95687E-02
 -1        19 0.00000E+00 0.00000E+00 0.00000E+00
 -1        20 5.08818E-05 1.01454E-02 7.05002E-02
 -1        21 3.56894E-05 2.26238E+00-1.76192E-01
 -1        22-4.76485E-16 2.26238E+00-1.76192E-01
 -1        23-3.56894E-05 2.26238E+00-1.76192E-01
 -1        24-7.13766E-05 2.25233E+00-2.46217E-01
 -1        25-7.13687E-05 2.24229E+00-3.16241E-01
 -1        26-7.13766E-05 2.23224E+00-3.86265E-01
 -1        27-3.56894E-05 2.22220E+00-4.56290E-01
 -1        28-1.60730E-16 2.22220E+00-4.56290E-01
 -1        29 3.56894E-05 2.22220E+00-4.56290E-01
 -1        30 7.13766E-05 2.23224E+00-3.86265E-01
 -1        31 7.13687E-05 2.24229E+00-3.16241E-01
 -1        32 7.13766E-05 2.25233E+00-2.46217E-01
 -1        33-1.06340E-06 1.60453E-01 1.20663E-01
 -1        34-1.09572E-04 3.00430E-01 1.00938E-01
 -1        35-7.18418E-05 4.40624E-01 8.11062E-02
 -1        36-7.23027E-05 5.80752E-01 6.13029E-02
 -1        37-6.98589E-05 7.20888E-01 4.15149E-02
 -1        38-7.32871E-05 8.61025E-01 2.17255E-02
 -1        39-7.13286E-05 1.00116E+00 1.93283E-03
 -1        40-7.14914E-05 1.14130E+00-1.78596E-02
 -1        41-7.12568E-05 1.28143E+00-3.76509E-02
 -1        42-7.15254E-05 1.42157E+00-5.74424E-02
 -1        43-7.13633E-05 1.56170E+00-7.72341E-02
 -1        44-7.13878E-05 1.70184E+00-9.70258E-02
 -1        45-7.13668E-05 1.84197E+00-1.16817E-01
 -1        46-7.13870E-05 1.98211E+00-1.36609E-01
 -1        47-7.13708E-05 2.12224E+00-1.56401E-01
 -1        48 7.13708E-05 2.12224E+00-1.56401E-01
 -1        49 7.13870E-05 1.98211E+00-1.36609E-01
 -1        50 7.13668E-05 1.84197E+00-1.16817E-01
 -1        51 7.13878E-05 1.70184E+00-9.70258E-02
 -1        52 7.13633E-05 1.56170E+00-7.72341E-02
 -1        53 7.15254E-05 1.42157E+00-5.74424E-02
 -1        54 7.12568E-05 1.28143E+00-3.76509E-02
 -1        55 7.14914E-05 1.14130E+00-1.78596E-02
 -1        56 7.13286E-05 1.00116E+00 1.93283E-03
 -1        57 7.32871E-05 8.61025E-01 2.17255E-02
 -1        58 6.98589E-05 7.20888E-01 4.15149E-02
 -1        59 7.23027E-05 5.80752E-01 6.13029E-02
 -1        60 7.18418E-05 4.40624E-01 8.11062E-02
 -1        61 1.09572E-04 3.00430E-01 1.00938E-01
 -1        62 1.06340E-06 1.60453E-01 1.20663E-01
 -1        63-1.06340E-06 1.20072E-01-1.59375E-01
 -1        64-1.09572E-04 2.60377E-01-1.79196E-01
 -1        65-7.18418E-05 4.00441E-01-1.98989E-01
 -1        66-7.23027E-05 5.40576E-01-2.18795E-01
 -1        67-6.98589E-05 6.80713E-01-2.38583E-01
 -1        68-7.32871E-05 8.20848E-01-2.58372E-01
 -1        69-7.13286E-05 9.60983E-01-2.78165E-01
 -1        70-7.14914E-05 1.10112E+00-2.97957E-01
 -1        71-7.12568E-05 1.24125E+00-3.17748E-01
 -1        72-7.15254E-05 1.38139E+00-3.37540E-01
 -1        73-7.13633E-05 1.52152E+00-3.57331E-01
 -1        74-7.13878E-05 1.66166E+00-3.77123E-01
 -1        75-7.13668E-05 1.80179E+00-3.96915E-01
 -1        76-7.13870E-05 1.94193E+00-4.16706E-01
 -1        77-7.13708E-05 2.08207E+00-4.36498E-01
 -1        78 1.06340E-06 1.20072E-01-1.59375E-01
 -1        79 1.09572E-04 2.60377E-01-1.79196E-01
 -1        80 7.18418E-05 4.00441E-01-1.98989E-01
 -1        81 7.23027E-05 5.40576E-01-2.18795E-01
 -1        82 6.98589E-05 6.80713E-01-2.38583E-01
 -1        83 7.32871E-05 8.20848E-01-2.58372E-01
 -1        84 7.13286E-05 9.60983E-01-2.78165E-01
 -1        85 7.14914E-05 1.10112E+00-2.97957E-01
 -1        86 7.12568E-05 1.24125E+00-3.17748E-01
 -1        87 7.15254E-05 1.38139E+00-3.37540E-01
 -1        88 7.13633E-05 1.52152E+00-3.57331E-01
 -1        89 7.13878E-05 1.66166E+00-3.77123E-01
 -1        90 7.13668E-05 1.80179E+00-3.96915E-01
 -1        91 7.13870E-05 1.94193E+00-4.16706E-01
 -1        92 7.13708E-05 2.08207E+00-4.36498E-01
 -1        93 1.67345E-17 1.01044E-02 7.05013E-02
 -1        94 0.00000E+00 0.00000E+00 0.00000E+00
 -1        95 0.00000E+00 0.00000E+00 0.00000E+00
 -1        96 0.00000E+00 0.00000E+00 0.00000E+00
 -1        97-1.52861E-17-9.83845E-03-6.95898E-02
 -1        98-4.14186E-16 2.25233E+00-2.46217E-01
 -1        99 3.56840E-05 2.24229E+00-3.16241E-01
 -1       100 0.00000E+00 2.24229E+00-3.16241E-01
 -1       101-3.56840E-05 2.24229E+00-3.16241E-01
 -1       102-3.50021E-16 2.23224E+00-3.86265E-01
 -1       103-3.27767E-17 1.60419E-01 1.20673E-01
 -1       104 5.32655E-05 3.00437E-01 1.00929E-01
 -1       105 1.14537E-16 3.00435E-01 1.00929E-01
 -1       106-5.32655E-05 3.00437E-01 1.00929E-01
 -1       107 1.74995E-16 4.40633E-01 8.11063E-02
 -1       108 3.67070E-05 5.80747E-01 6.13038E-02
 -1       109 1.43118E-16 5.80744E-01 6.13018E-02
 -1       110-3.67070E-05 5.80747E-01 6.13038E-02
 -1       111 1.46612E-16 7.20888E-01 4.15150E-02
 -1       112 3.65259E-05 8.61024E-01 2.17251E-02
 -1       113 2.40135E-16 8.61023E-01 2.17253E-02
 -1       114-3.65259E-05 8.61024E-01 2.17251E-02
 -1       115 1.96732E-16 1.00116E+00 1.93294E-03
 -1       116 3.57714E-05 1.14129E+00-1.78596E-02
 -1       117 1.58324E-16 1.14129E+00-1.78597E-02
 -1       118-3.57714E-05 1.14129E+00-1.78596E-02
 -1       119 3.46162E-16 1.28143E+00-3.76509E-02
 -1       120 3.57580E-05 1.42157E+00-5.74424E-02
 -1       121 9.41048E-17 1.42157E+00-5.74424E-02
 -1       122-3.57580E-05 1.42157E+00-5.74424E-02
 -1       123-4.85227E-18 1.56170E+00-7.72341E-02
 -1       124 3.56947E-05 1.70184E+00-9.70258E-02
 -1       125 1.44044E-16 1.70184E+00-9.70258E-02
 -1       126-3.56947E-05 1.70184E+00-9.70258E-02
 -1       127-1.03458E-16 1.84197E+00-1.16817E-01
 -1       128 3.56936E-05 1.98211E+00-1.36609E-01
 -1       129-3.45122E-16 1.98211E+00-1.36609E-01
 -1       130-3.56936E-05 1.98211E+00-1.36609E-01
 -1       131-1.05078E-16 2.12224E+00-1.56401E-01
 -1       132-1.13160E-04 1.40238E-01-1.94386E-02
 -1       133-5.60101E-05 2.90412E-01 3.08735E-02
 -1       134-2.61498E-05 2.80398E-01-3.91457E-02
 -1       135-5.60101E-05 2.70377E-01-1.09191E-01
 -1       136-8.19381E-05 4.20530E-01-5.89503E-02
 -1       137-6.80326E-05 5.70709E-01-8.71373E-03
 -1       138-5.78167E-05 5.60665E-01-7.87413E-02
 -1       139-6.80326E-05 5.50623E-01-1.48763E-01
 -1       140-7.30576E-05 7.00801E-01-9.85332E-02
 -1       141-7.06281E-05 8.50980E-01-4.83010E-02
 -1       142-6.95781E-05 8.40936E-01-1.18324E-01
 -1       143-7.06281E-05 8.30891E-01-1.88350E-01
 -1       144-7.16892E-05 9.81071E-01-1.38116E-01
 -1       145-7.13517E-05 1.13125E+00-8.78834E-02
 -1       146-7.08022E-05 1.12121E+00-1.57908E-01
 -1       147-7.13517E-05 1.11116E+00-2.27932E-01
 -1       148-7.14356E-05 1.26134E+00-1.77699E-01
 -1       149-7.13670E-05 1.41152E+00-1.27467E-01
 -1       150-7.13152E-05 1.40148E+00-1.97491E-01
 -1       151-7.13670E-05 1.39143E+00-2.67516E-01
 -1       152-7.13925E-05 1.54161E+00-2.17283E-01
 -1       153-7.13774E-05 1.69179E+00-1.67050E-01
 -1       154-7.13391E-05 1.68175E+00-2.37074E-01
 -1       155-7.13774E-05 1.67170E+00-3.07099E-01
 -1       156-7.13786E-05 1.82188E+00-2.56866E-01
 -1       157-7.13744E-05 1.97206E+00-2.06633E-01
 -1       158-7.13697E-05 1.96202E+00-2.76658E-01
 -1       159-7.13744E-05 1.95197E+00-3.46682E-01
 -1       160-7.13764E-05 2.10215E+00-2.96449E-01