    1C
    1UModel: beam     Date: 10-Mar-1998                                 
    1UUSER                                                              
    1UDATE              04.january.2023                                 
    1UTIME              10:30:40                                        
    1UHOST                                                              
    1UPGM               CalculiX                                        
    1UVERSION           Version DEVELOPMENT                             
    1UCOMPILETIME       Wed Jan 13 11:31:32 CET 2021                    
    1UDIR                                                               
    1UDBN                                                               
    1UMAT    1UNDO_NLGEOM_LIN_EL_1                                      
    2C                           261                                     1
 -1         1 0.00000E+00 0.00000E+00 0.00000E+00
 -1         2 1.00000E+00 0.00000E+00 0.00000E+00
 -1         3 1.00000E+00 1.00000E+00 0.00000E+00
 -1         4 0.00000E+00 1.00000E+00 0.00000E+00
 -1         5 0.00000E+00 0.00000E+00 8.00000E+00
 -1         6 1.00000E+00 0.00000E+00 8.00000E+00
 -1         7 1.00000E+00 1.00000E+00 8.00000E+00
 -1         8 0.00000E+00 1.00000E+00 8.00000E+00
 -1         9 2.50000E-01 0.00000E+00 0.00000E+00
 -1        10 5.00000E-01 0.00000E+00 0.00000E+00
 -1        11 7.50000E-01 0.00000E+00 0.00000E+00
 -1        12 1.00000E+00 2.50000E-01 0.00000E+00
 -1        13 1.00000E+00 5.00000E-01 0.00000E+00
 -1        14 1.00000E+00 7.50000E-01 0.00000E+00
 -1        15 7.50000E-01 1.00000E+00 0.00000E+00
 -1        16 5.00000E-01 1.00000E+00 0.00000E+00
 -1        17 2.50000E-01 1.00000E+00 0.00000E+00
 -1        18 0.00000E+00 7.50000E-01 0.00000E+00
 -1        19 0.00000E+00 5.00000E-01 0.00000E+00
 -1        20 0.00000E+00 2.50000E-01 0.00000E+00
 -1        21 2.50000E-01 0.00000E+00 8.00000E+00
 -1        22 5.00000E-01 0.00000E+00 8.00000E+00
 -1        23 7.50000E-01 0.00000E+00 8.00000E+00
 -1        24 1.00000E+00 2.50000E-01 8.00000E+00
 -1        25 1.00000E+00 5.00000E-01 8.00000E+00
 -1        26 1.00000E+00 7.50000E-01 8.00000E+00
 -1        27 7.50000E-01 1.00000E+00 8.00000E+00
 -1        28 5.00000E-01 1.00000E+00 8.00000E+00
 -1        29 2.50000E-01 1.00000E+00 8.00000E+00
 -1        30 0.00000E+00 7.50000E-01 8.00000E+00
 -1        31 0.00000E+00 5.00000E-01 8.00000E+00
 -1        32 0.00000E+00 2.50000E-01 8.00000E+00
 -1        33 1.00000E+00 0.00000E+00 5.00000E-01
 -1        34 1.00000E+00 0.00000E+00 1.00000E+00
 -1        35 1.00000E+00 0.00000E+00 1.50000E+00
 -1        36 1.00000E+00 0.00000E+00 2.00000E+00
 -1        37 1.00000E+00 0.00000E+00 2.50000E+00
 -1        38 1.00000E+00 0.00000E+00 3.00000E+00
 -1        39 1.00000E+00 0.00000E+00 3.50000E+00
 -1        40 1.00000E+00 0.00000E+00 4.00000E+00
 -1        41 1.00000E+00 0.00000E+00 4.50000E+00
 -1        42 1.00000E+00 0.00000E+00 5.00000E+00
 -1        43 1.00000E+00 0.00000E+00 5.50000E+00
 -1        44 1.00000E+00 0.00000E+00 6.00000E+00
 -1        45 1.00000E+00 0.00000E+00 6.50000E+00
 -1        46 1.00000E+00 0.00000E+00 7.00000E+00
 -1        47 1.00000E+00 0.00000E+00 7.50000E+00
 -1        48 0.00000E+00 0.00000E+00 7.50000E+00
 -1        49 0.00000E+00 0.00000E+00 7.00000E+00
 -1        50 0.00000E+00 0.00000E+00 6.50000E+00
 -1        51 0.00000E+00 0.00000E+00 6.00000E+00
 -1        52 0.00000E+00 0.00000E+00 5.50000E+00
 -1        53 0.00000E+00 0.00000E+00 5.00000E+00
 -1        54 0.00000E+00 0.00000E+00 4.50000E+00
 -1        55 0.00000E+00 0.00000E+00 4.00000E+00
 -1        56 0.00000E+00 0.00000E+00 3.50000E+00
 -1        57 0.00000E+00 0.00000E+00 3.00000E+00
 -1        58 0.00000E+00 0.00000E+00 2.50000E+00
 -1        59 0.00000E+00 0.00000E+00 2.00000E+00
 -1        60 0.00000E+00 0.00000E+00 1.50000E+00
 -1        61 0.00000E+00 0.00000E+00 1.00000E+00
 -1        62 0.00000E+00 0.00000E+00 5.00000E-01
 -1        63 1.00000E+00 1.00000E+00 5.00000E-01
 -1        64 1.00000E+00 1.00000E+00 1.00000E+00
 -1        65 1.00000E+00 1.00000E+00 1.50000E+00
 -1        66 1.00000E+00 1.00000E+00 2.00000E+00
 -1        67 1.00000E+00 1.00000E+00 2.50000E+00
 -1        68 1.00000E+00 1.00000E+00 3.00000E+00
 -1        69 1.00000E+00 1.00000E+00 3.50000E+00
 -1        70 1.00000E+00 1.00000E+00 4.00000E+00
 -1        71 1.00000E+00 1.00000E+00 4.50000E+00
 -1        72 1.00000E+00 1.00000E+00 5.00000E+00
 -1        73 1.00000E+00 1.00000E+00 5.50000E+00
 -1        74 1.00000E+00 1.00000E+00 6.00000E+00
 -1        75 1.00000E+00 1.00000E+00 6.50000E+00
 -1        76 1.00000E+00 1.00000E+00 7.00000E+00
 -1        77 1.00000E+00 1.00000E+00 7.50000E+00
 -1        78 0.00000E+00 1.00000E+00 5.00000E-01
 -1        79 0.00000E+00 1.00000E+00 1.00000E+00
 -1        80 0.00000E+00 1.00000E+00 1.50000E+00
 -1        81 0.00000E+00 1.00000E+00 2.00000E+00
 -1        82 0.00000E+00 1.00000E+00 2.50000E+00
 -1        83 0.00000E+00 1.00000E+00 3.00000E+00
 -1        84 0.00000E+00 1.00000E+00 3.50000E+00
 -1        85 0.00000E+00 1.00000E+00 4.00000E+00
 -1        86 0.00000E+00 1.00000E+00 4.50000E+00
 -1        87 0.00000E+00 1.00000E+00 5.00000E+00
 -1        88 0.00000E+00 1.00000E+00 5.50000E+00
 -1        89 0.00000E+00 1.00000E+00 6.00000E+00
 -1        90 0.00000E+00 1.00000E+00 6.50000E+00
 -1        91 0.00000E+00 1.00000E+00 7.00000E+00
 -1        92 0.00000E+00 1.00000E+00 7.50000E+00
 -1        93 5.00000E-01 2.50000E-01 0.00000E+00
 -1        94 2.50000E-01 5.00000E-01 0.00000E+00
 -1        95 5.00000E-01 5.00000E-01 0.00000E+00
 -1        96 7.50000E-01 5.00000E-01 0.00000E+00
 -1        97 5.00000E-01 7.50000E-01 0.00000E+00
 -1        98 5.00000E-01 2.50000E-01 8.00000E+00
 -1        99 2.50000E-01 5.00000E-01 8.00000E+00
 -1       100 5.00000E-01 5.00000E-01 8.00000E+00
 -1       101 7.50000E-01 5.00000E-01 8.00000E+00
 -1       102 5.00000E-01 7.50000E-01 8.00000E+00
 -1       103 5.00000E-01 0.00000E+00 5.00000E-01
 -1       104 2.50000E-01 0.00000E+00 1.00000E+00
 -1       105 5.00000E-01 0.00000E+00 1.00000E+00
 -1       106 7.50000E-01 0.00000E+00 1.00000E+00
 -1       107 5.00000E-01 0.00000E+00 1.50000E+00
 -1       108 2.50000E-01 0.00000E+00 2.00000E+00
 -1       109 5.00000E-01 0.00000E+00 2.00000E+00
 -1       110 7.50000E-01 0.00000E+00 2.00000E+00
 -1       111 5.00000E-01 0.00000E+00 2.50000E+00
 -1       112 2.50000E-01 0.00000E+00 3.00000E+00
 -1       113 5.00000E-01 0.00000E+00 3.00000E+00
 -1       114 7.50000E-01 0.00000E+00 3.00000E+00
 -1       115 5.00000E-01 0.00000E+00 3.50000E+00
 -1       116 2.50000E-01 0.00000E+00 4.00000E+00
 -1       117 5.00000E-01 0.00000E+00 4.00000E+00
 -1       118 7.50000E-01 0.00000E+00 4.00000E+00
 -1       119 5.00000E-01 0.00000E+00 4.50000E+00
 -1       120 2.50000E-01 0.00000E+00 5.00000E+00
 -1       121 5.00000E-01 0.00000E+00 5.00000E+00
 -1       122 7.50000E-01 0.00000E+00 5.00000E+00
 -1       123 5.00000E-01 0.00000E+00 5.50000E+00
 -1       124 2.50000E-01 0.00000E+00 6.00000E+00
 -1       125 5.00000E-01 0.00000E+00 6.00000E+00
 -1       126 7.50000E-01 0.00000E+00 6.00000E+00
 -1       127 5.00000E-01 0.00000E+00 6.50000E+00
 -1       128 2.50000E-01 0.00000E+00 7.00000E+00
 -1       129 5.00000E-01 0.00000E+00 7.00000E+00
 -1       130 7.50000E-01 0.00000E+00 7.00000E+00
 -1       131 5.00000E-01 0.00000E+00 7.50000E+00
 -1       132 1.00000E+00 5.00000E-01 5.00000E-01
 -1       133 1.00000E+00 2.50000E-01 1.00000E+00
 -1       134 1.00000E+00 5.00000E-01 1.00000E+00
 -1       135 1.00000E+00 7.50000E-01 1.00000E+00
 -1       136 1.00000E+00 5.00000E-01 1.50000E+00
 -1       137 1.00000E+00 2.50000E-01 2.00000E+00
 -1       138 1.00000E+00 5.00000E-01 2.00000E+00
 -1       139 1.00000E+00 7.50000E-01 2.00000E+00
 -1       140 1.00000E+00 5.00000E-01 2.50000E+00
 -1       141 1.00000E+00 2.50000E-01 3.00000E+00
 -1       142 1.00000E+00 5.00000E-01 3.00000E+00
 -1       143 1.00000E+00 7.50000E-01 3.00000E+00
 -1       144 1.00000E+00 5.00000E-01 3.50000E+00
 -1       145 1.00000E+00 2.50000E-01 4.00000E+00
 -1       146 1.00000E+00 5.00000E-01 4.00000E+00
 -1       147 1.00000E+00 7.50000E-01 4.00000E+00
 -1       148 1.00000E+00 5.00000E-01 4.50000E+00
 -1       149 1.00000E+00 2.50000E-01 5.00000E+00
 -1       150 1.00000E+00 5.00000E-01 5.00000E+00
 -1       151 1.00000E+00 7.50000E-01 5.00000E+00
 -1       152 1.00000E+00 5.00000E-01 5.50000E+00
 -1       153 1.00000E+00 2.50000E-01 6.00000E+00
 -1       154 1.00000E+00 5.00000E-01 6.00000E+00
 -1       155 1.00000E+00 7.50000E-01 6.00000E+00
 -1       156 1.00000E+00 5.00000E-01 6.50000E+00
 -1       157 1.00000E+00 2.50000E-01 7.00000E+00
 -1       158 1.00000E+00 5.00000E-01 7.00000E+00
 -1       159 1.00000E+00 7.50000E-01 7.00000E+00
 -1       160 1.00000E+00 5.00000E-01 7.50000E+00
 -1       161 5.00000E-01 1.00000E+00 5.00000E-01
 -1       162 7.50000E-01 1.00000E+00 1.00000E+00
 -1       163 5.00000E-01 1.00000E+00 1.00000E+00
 -1       164 2.50000E-01 1.00000E+00 1.00000E+00
 -1       165 5.00000E-01 1.00000E+00 1.50000E+00
 -1       166 7.50000E-01 1.00000E+00 2.00000E+00
 -1       167 5.00000E-01 1.00000E+00 2.00000E+00
 -1       168 2.50000E-01 1.00000E+00 2.00000E+00
 -1       169 5.00000E-01 1.00000E+00 2.50000E+00
 -1       170 7.50000E-01 1.00000E+00 3.00000E+00
 -1       171 5.00000E-01 1.00000E+00 3.00000E+00
 -1       172 2.50000E-01 1.00000E+00 3.00000E+00
 -1       173 5.00000E-01 1.00000E+00 3.50000E+00
 -1       174 7.50000E-01 1.00000E+00 4.00000E+00
 -1       175 5.00000E-01 1.00000E+00 4.00000E+00
 -1       176 2.50000E-01 1.00000E+00 4.00000E+00
 -1       177 5.00000E-01 1.00000E+00 4.50000E+00
 -1       178 7.50000E-01 1.00000E+00 5.00000E+00
 -1       179 5.00000E-01 1.00000E+00 5.00000E+00
 -1       180 2.50000E-01 1.00000E+00 5.00000E+00
 -1       181 5.00000E-01 1.00000E+00 5.50000E+00
 -1       182 7.50000E-01 1.00000E+00 6.00000E+00
 -1       183 5.00000E-01 1.00000E+00 6.00000E+00
 -1       184 2.50000E-01 1.00000E+00 6.00000E+00
 -1       185 5.00000E-01 1.00000E+00 6.50000E+00
 -1       186 7.50000E-01 1.00000E+00 7.00000E+00
 -1       187 5.00000E-01 1.00000E+00 7.00000E+00
 -1       188 2.50000E-01 1.00000E+00 7.00000E+00
 -1       189 5.00000E-01 1.00000E+00 7.50000E+00
 -1       190 0.00000E+00 5.00000E-01 5.00000E-01
 -1       191 0.00000E+00 7.50000E-01 1.00000E+00
 -1       192 0.00000E+00 5.00000E-01 1.00000E+00
 -1       193 0.00000E+00 2.50000E-01 1.00000E+00
 -1       194 0.00000E+00 5.00000E-01 1.50000E+00
 -1       195 0.00000E+00 7.50000E-01 2.00000E+00
 -1       196 0.00000E+00 5.00000E-01 2.00000E+00
 -1       197 0.00000E+00 2.50000E-01 2.00000E+00
 -1       198 0.00000E+00 5.00000E-01 2.50000E+00
 -1       199 0.00000E+00 7.50000E-01 3.00000E+00
 -1       200 0.00000E+00 5.00000E-01 3.00000E+00
 -1       201 0.00000E+00 2.50000E-01 3.00000E+00
 -1       202 0.00000E+00 5.00000E-01 3.50000E+00
 -1       203 0.00000E+00 7.50000E-01 4.00000E+00
 -1       204 0.00000E+00 5.00000E-01 4.00000E+00
 -1       205 0.00000E+00 2.50000E-01 4.00000E+00
 -1       206 0.00000E+00 5.00000E-01 4.50000E+00
 -1       207 0.00000E+00 7.50000E-01 5.00000E+00
 -1       208 0.00000E+00 5.00000E-01 5.00000E+00
 -1       209 0.00000E+00 2.50000E-01 5.00000E+00
 -1       210 0.00000E+00 5.00000E-01 5.50000E+00
 -1       211 0.00000E+00 7.50000E-01 6.00000E+00
 -1       212 0.00000E+00 5.00000E-01 6.00000E+00
 -1       213 0.00000E+00 2.50000E-01 6.00000E+00
 -1       214 0.00000E+00 5.00000E-01 6.50000E+00
 -1       215 0.00000E+00 7.50000E-01 7.00000E+00
 -1       216 0.00000E+00 5.00000E-01 7.00000E+00
 -1       217 0.00000E+00 2.50000E-01 7.00000E+00
 -1       218 0.00000E+00 5.00000E-01 7.50000E+00
 -1       219 5.00000E-01 5.00000E-01 5.00000E-01
 -1       220 5.00000E-01 2.50000E-01 1.00000E+00
 -1       221 2.50000E-01 5.00000E-01 1.00000E+00
 -1       222 5.00000E-01 5.00000E-01 1.00000E+00
 -1       223 7.50000E-01 5.00000E-01 1.00000E+00
 -1       224 5.00000E-01 7.50000E-01 1.00000E+00
 -1       225 5.00000E-01 5.00000E-01 1.50000E+00
 -1       226 5.00000E-01 2.50000E-01 2.00000E+00
 -1       227 2.50000E-01 5.00000E-01 2.00000E+00
 -1       228 5.00000E-01 5.00000E-01 2.00000E+00
 -1       229 7.50000E-01 5.00000E-01 2.00000E+00
 -1       230 5.00000E-01 7.50000E-01 2.00000E+00
 -1       231 5.00000E-01 5.00000E-01 2.50000E+00
 -1       232 5.00000E-01 2.50000E-01 3.00000E+00
 -1       233 2.50000E-01 5.00000E-01 3.00000E+00
 -1       234 5.00000E-01 5.00000E-01 3.00000E+00
 -1       235 7.50000E-01 5.00000E-01 3.00000E+00
 -1       236 5.00000E-01 7.50000E-01 3.00000E+00
 -1       237 5.00000E-01 5.00000E-01 3.50000E+00
 -1       238 5.00000E-01 2.50000E-01 4.00000E+00
 -1       239 2.50000E-01 5.00000E-01 4.00000E+00
 -1       240 5.00000E-01 5.00000E-01 4.00000E+00
 -1       241 7.50000E-01 5.00000E-01 4.00000E+00
 -1       242 5.00000E-01 7.50000E-01 4.00000E+00
 -1       243 5.00000E-01 5.00000E-01 4.50000E+00
 -1       244 5.00000E-01 2.50000E-01 5.00000E+00
 -1       245 2.50000E-01 5.00000E-01 5.00000E+00
 -1       246 5.00000E-01 5.00000E-01 5.00000E+00
 -1       247 7.50000E-01 5.00000E-01 5.00000E+00
 -1       248 5.00000E-01 7.50000E-01 5.00000E+00
 -1       249 5.00000E-01 5.00000E-01 5.50000E+00
 -1       250 5.00000E-01 2.50000E-01 6.00000E+00
 -1       251 2.50000E-01 5.00000E-01 6.00000E+00
 -1       252 5.00000E-01 5.00000E-01 6.00000E+00
 -1       253 7.50000E-01 5.00000E-01 6.00000E+00
 -1       254 5.00000E-01 7.50000E-01 6.00000E+00
 -1       255 5.00000E-01 5.00000E-01 6.50000E+00
 -1       256 5.00000E-01 2.50000E-01 7.00000E+00
 -1       257 2.50000E-01 5.00000E-01 7.00000E+00
 -1       258 5.00000E-01 5.00000E-01 7.00000E+00
 -1       259 7.50000E-01 5.00000E-01 7.00000E+00
 -1       260 5.00000E-01 7.50000E-01 7.00000E+00
 -1       261 5.00000E-01 5.00000E-01 7.50000E+00
 -3
    3C                            32                                     1
 -1         1    4    0    1
 -2         1        10        95        19        61       105       222       192         9        93
 -2        94        20        62       103       219       190       104       220       221       193
 -1         2    4    0    1
 -2        10         2        13        95       105        34       134       222        11        12
 -2        96        93       103        33       132       219       106       133       223       220
 -1         3    4    0    1
 -2        19        95        16         4       192       222       163        79        94        97
 -2        17        18       190       219       161        78       221       224       164       191
 -1         4    4    0    1
 -2        95        13         3        16       222       134        64       163        96        14
 -2        15        97       219       132        63       161       223       135       162       224
 -1         5    4    0    1
 -2        61       105       222       192        59       109       228       196       104       220
 -2       221       193        60       107       225       194       108       226       227       197
 -1         6    4    0    1
 -2       105        34       134       222       109        36       138       228       106       133
 -2       223       220       107        35       136       225       110       137       229       226
 -1         7    4    0    1
 -2       192       222       163        79       196       228       167        81       221       224
 -2       164       191       194       225       165        80       227       230       168       195
 -1         8    4    0    1
 -2       222       134        64       163       228       138        66       167       223       135
 -2       162       224       225       136        65       165       229       139       166       230
 -1         9    4    0    1
 -2        59       109       228       196        57       113       234       200       108       226
 -2       227       197        58       111       231       198       112       232       233       201
 -1        10    4    0    1
 -2       109        36       138       228       113        38       142       234       110       137
 -2       229       226       111        37       140       231       114       141       235       232
 -1        11    4    0    1
 -2       196       228       167        81       200       234       171        83       227       230
 -2       168       195       198       231       169        82       233       236       172       199
 -1        12    4    0    1
 -2       228       138        66       167       234       142        68       171       229       139
 -2       166       230       231       140        67       169       235       143       170       236
 -1        13    4    0    1
 -2        57       113       234       200        55       117       240       204       112       232
 -2       233       201        56       115       237       202       116       238       239       205
 -1        14    4    0    1
 -2       113        38       142       234       117        40       146       240       114       141
 -2       235       232       115        39       144       237       118       145       241       238
 -1        15    4    0    1
 -2       200       234       171        83       204       240       175        85       233       236
 -2       172       199       202       237       173        84       239       242       176       203
 -1        16    4    0    1
 -2       234       142        68       171       240       146        70       175       235       143
 -2       170       236       237       144        69       173       241       147       174       242
 -1        17    4    0    1
 -2        55       117       240       204        53       121       246       208       116       238
 -2       239       205        54       119       243       206       120       244       245       209
 -1        18    4    0    1
 -2       117        40       146       240       121        42       150       246       118       145
 -2       241       238       119        41       148       243       122       149       247       244
 -1        19    4    0    1
 -2       204       240       175        85       208       246       179        87       239       242
 -2       176       203       206       243       177        86       245       248       180       207
 -1        20    4    0    1
 -2       240       146        70       175       246       150        72       179       241       147
 -2       174       242       243       148        71       177       247       151       178       248
 -1        21    4    0    1
 -2        53       121       246       208        51       125       252       212       120       244
 -2       245       209        52       123       249       210       124       250       251       213
 -1        22    4    0    1
 -2       121        42       150       246       125        44       154       252       122       149
 -2       247       244       123        43       152       249       126       153       253       250
 -1        23    4    0    1
 -2       208       246       179        87       212       252       183        89       245       248
 -2       180       207       210       249       181        88       251       254       184       211
 -1        24    4    0    1
 -2       246       150        72       179       252       154        74       183       247       151
 -2       178       248       249       152        73       181       253       155       182       254
 -1        25    4    0    1
 -2        51       125       252       212        49       129       258       216       124       250
 -2       251       213        50       127       255       214       128       256       257       217
 -1        26    4    0    1
 -2       125        44       154       252       129        46       158       258       126       153
 -2       253       250       127        45       156       255       130       157       259       256
 -1        27    4    0    1
 -2       212       252       183        89       216       258       187        91       251       254
 -2       184       211       214       255       185        90       257       260       188       215
 -1        28    4    0    1
 -2       252       154        74       183       258       158        76       187       253       155
 -2       182       254       255       156        75       185       259       159       186       260
 -1        29    4    0    1
 -2        49       129       258       216         5        22       100        31       128       256
 -2       257       217        48       131       261       218        21        98        99        32
 -1        30    4    0    1
 -2       129        46       158       258        22         6        25       100       130       157
 -2       259       256       131        47       160       261        23        24       101        98
 -1        31    4    0    1
 -2       216       258       187        91        31       100        28         8       257       260
 -2       188       215       218       261       189        92        99       102        29        30
 -1        32    4    0    1
 -2       258       158        76       187       100        25         7        28       259       159
 -2       186       260       261       160        77       189       101        26        27       102
 -3
    1PSTEP                         1           4           1          
  100CL  101 1.000000000         261                     0    1           1
 -4  TOSTRAIN    6    1
 -5  EXX         1    4    1    1
 -5  EYY         1    4    2    2
 -5  EZZ         1    4    3    3
 -5  EXY         1    4    1    2
 -5  EYZ         1    4    2    3
 -5  EZX         1    4    3    1
 -1         1 8.25353E-13 6.58946E-13-1.43746E-12-2.90194E-13 2.13956E-13 1.27549E-13
 -1         2 4.69572E-13 3.14321E-13-1.61548E-12 1.69212E-13 3.83745E-13 1.33289E-15
 -1         3-3.59797E-13 1.88513E-13-2.35562E-12 3.02846E-13 2.81168E-13 8.62701E-14
 -1         4-2.77420E-13-4.26059E-14-2.52163E-12 5.70181E-14 2.10465E-13 4.35860E-13
 -1         5-7.26830E-15-4.72046E-13 1.89452E-12-6.04505E-13 3.24651E-13 4.72746E-13
 -1         6 1.63015E-12-6.00223E-13 2.28321E-12 4.46157E-14 1.48406E-14-1.04064E-12
 -1         7 2.01335E-12 2.37125E-12 3.31433E-12 1.81655E-13-1.86367E-12-1.35507E-12
 -1         8-1.01100E-13 2.01773E-12 2.36588E-12 3.87637E-13-1.60265E-12 1.06273E-13
 -1         9 6.20122E-13 2.46862E-13-1.54342E-12-1.54857E-13 3.84381E-13 1.25866E-13
 -1        10 4.16275E-13-1.95952E-13-1.66319E-12-1.33913E-14 5.34154E-13 1.38959E-13
 -1        11 4.43615E-13 4.38191E-14-1.64625E-12 8.09752E-14 4.48624E-13 7.75335E-14
 -1        12 3.88704E-13 1.87136E-12 2.02350E-12 3.47894E-14-1.17945E-12-3.36616E-13
 -1        13 2.00953E-13 2.12072E-12 5.78459E-12-5.72756E-13-1.44928E-12-6.70879E-13
 -1        14-1.32863E-13 5.00780E-13 1.77554E-12-3.71516E-13 6.26268E-14-2.90461E-13
 -1        15-1.77918E-13 2.98887E-13-2.39632E-12 2.37840E-13 1.71001E-13 1.69689E-13
 -1        16-1.13990E-14 4.21409E-13-2.44654E-12 2.08891E-13 6.84037E-14 2.30947E-13
 -1        17-1.52089E-13 1.95475E-13-2.48885E-12 1.50983E-13 1.43219E-13 3.22323E-13
 -1        18-1.10660E-13-1.01586E-13 1.92778E-12-2.94860E-13 1.81223E-13-3.37897E-13
 -1        19 1.63633E-13 1.46164E-12 6.32659E-12 1.20288E-13-1.47904E-12-1.07028E-12
 -1        20 5.48259E-13 1.87139E-12 2.41927E-12 2.98560E-13-1.44806E-12-4.50675E-13
 -1        21 1.47819E-12 4.45131E-13-2.37572E-12 3.82086E-13-1.06104E-13-4.15733E-13
 -1        22 1.44163E-12 1.46005E-12-6.76956E-12 6.49087E-13-5.25782E-13 5.38250E-13
 -1        23 7.74880E-13 4.78785E-13-2.30498E-12-1.29433E-14-2.49932E-13 6.70037E-13
 -1        24 2.08386E-13 1.44514E-12-1.99967E-12 6.38869E-13-7.17471E-13 3.76081E-13
 -1        25-1.04244E-12 1.51813E-12-6.23610E-12 3.68615E-14 5.46165E-13 1.93705E-12
 -1        26 5.70927E-13 9.58500E-13-1.43766E-12-4.88872E-13 3.39219E-13 3.63117E-13
 -1        27 9.32832E-13 5.15799E-13-1.31268E-12-5.95282E-13 2.78493E-13 5.08982E-13
 -1        28 1.38415E-12-1.61510E-12-5.97850E-12-3.34419E-13 2.29737E-12 5.78533E-13
 -1        29 1.40745E-12 6.35890E-14-1.82571E-12 5.45509E-13 2.85716E-13-5.54847E-13
 -1        30 4.91299E-13 8.19564E-13-2.14603E-12-4.38028E-14 6.21731E-13-3.27911E-13
 -1        31 1.10428E-12 1.74618E-12-6.51475E-12 4.18639E-13 7.61344E-13-7.75313E-13
 -1        32 5.58801E-13 1.69945E-12-2.23851E-12 3.54008E-13-4.99387E-13-1.57893E-13
 -1        33 3.44762E-13-1.12378E-13 7.05469E-13 2.40055E-14-2.41320E-13-6.25350E-14
 -1        34 2.43756E-13 2.45788E-13 2.32148E-12-9.51451E-14-6.27382E-13-2.49881E-13
 -1        35 2.47529E-13 5.48671E-13 1.83097E-12-6.85001E-14-4.31310E-13-3.03629E-13
 -1        36 2.33143E-13 6.93096E-14 1.98870E-12-6.48870E-14-4.63962E-13-2.37501E-13
 -1        37 2.50430E-13 1.33650E-13 1.87197E-12-6.04004E-14-4.44340E-13-2.41623E-13
 -1        38 2.62986E-13 2.33182E-13 1.88233E-12-7.09845E-14-4.52404E-13-2.38883E-13
 -1        39 2.49167E-13 2.33971E-13 1.89877E-12-6.29040E-14-4.37873E-13-2.68988E-13
 -1        40 2.83766E-13 2.13120E-13 1.95686E-12-8.28533E-14-4.71593E-13-2.45774E-13
 -1        41 2.41267E-13 2.08684E-13 1.92837E-12-5.37499E-14-4.54630E-13-2.60400E-13
 -1        42 2.42308E-13 2.37353E-13 1.83297E-12-9.96743E-14-4.77126E-13-1.50081E-13
 -1        43 2.09317E-13 1.86341E-13 1.98814E-12-4.43842E-14-4.11552E-13-3.52650E-13
 -1        44 4.51883E-13 5.48311E-14 1.69076E-12-1.49341E-13-2.98343E-13-2.74106E-13
 -1        45 3.28231E-13 4.66463E-13 2.39743E-12-3.26850E-14-7.74439E-13-1.56723E-13
 -1        46-4.38099E-13 2.83850E-13 1.10032E-12 2.56053E-14-3.19266E-13-1.00826E-13
 -1        47 4.58900E-13-4.70921E-13 4.86165E-13-1.31748E-13 2.84682E-13-3.70156E-13
 -1        48-7.40982E-13-9.21035E-13 2.14089E-14-3.55681E-13 5.30634E-13 4.96864E-13
 -1        49-2.63734E-13-1.06072E-13 1.26425E-12 1.03161E-13-3.17896E-13-1.34120E-13
 -1        50 6.65567E-13 6.40924E-13 2.69209E-12 1.73843E-13-9.07373E-13-5.87174E-13
 -1        51 2.23168E-13 1.08904E-13 1.50857E-12-2.04852E-13-2.81248E-13-1.27352E-13
 -1        52 1.76960E-13 1.45418E-13 2.05371E-12-1.65053E-13-3.75704E-13-1.72695E-13
 -1        53 2.72875E-13 2.20998E-13 1.97080E-12 1.60535E-14-5.36087E-13-3.51509E-13
 -1        54 2.79210E-13 2.37197E-13 2.04477E-12-5.86125E-14-4.91475E-13-2.75268E-13
 -1        55 2.85913E-13 2.25288E-13 2.08464E-12-7.48654E-14-4.91005E-13-2.81055E-13
 -1        56 2.65891E-13 2.34347E-13 2.03521E-12-8.08981E-14-4.73309E-13-2.68655E-13
 -1        57 2.64418E-13 2.41500E-13 2.06776E-12-5.70631E-14-4.92314E-13-2.86927E-13
 -1        58 2.89769E-13 2.06939E-13 2.06576E-12-7.65522E-14-4.83440E-13-2.68546E-13
 -1        59 3.08055E-13 9.25435E-14 2.20714E-12-1.08420E-13-5.42938E-13-2.43917E-13
 -1        60 2.70826E-13 4.52324E-13 1.94341E-12-1.94817E-14-4.85482E-13-3.05978E-13
 -1        61 1.97404E-13 2.39847E-13 2.71394E-12 1.34317E-14-6.63487E-13-3.62145E-13
 -1        62 4.89900E-13 1.20344E-13 1.18929E-12-1.77468E-13-3.69521E-13-1.05425E-13
 -1        63-1.58637E-13-2.50151E-13 1.91948E-13 4.67951E-14 1.80345E-13-1.05988E-13
 -1        64 1.41043E-13-5.85198E-14 2.34146E-12-1.64605E-13-3.43144E-13-2.56564E-13
 -1        65 2.76855E-13 4.11476E-13 1.95515E-12-7.01398E-14-6.08351E-13-2.43785E-13
 -1        66 2.87659E-13 1.84119E-13 1.89239E-12-4.61828E-14-3.96434E-13-2.58962E-13
 -1        67 2.43832E-13 1.54810E-13 1.84270E-12-7.19495E-14-3.91983E-13-2.49094E-13
 -1        68 2.30708E-13 2.08530E-13 1.89430E-12-6.23959E-14-4.55790E-13-2.51095E-13
 -1        69 2.57140E-13 2.29229E-13 1.91144E-12-6.32350E-14-4.62946E-13-2.56290E-13
 -1        70 2.79057E-13 2.29827E-13 1.90214E-12-4.81203E-14-4.55880E-13-2.59163E-13
 -1        71 2.26714E-13 1.80103E-13 1.93431E-12-8.78943E-14-4.35694E-13-2.48712E-13
 -1        72 2.02221E-13 1.65527E-13 1.81767E-12-4.14961E-14-4.01499E-13-2.11457E-13
 -1        73 2.97899E-13 2.55376E-13 2.04231E-12-7.11356E-14-5.11801E-13-3.02314E-13
 -1        74 4.68914E-13 4.38155E-13 1.68119E-12 1.28427E-13-6.04398E-13-3.59039E-13
 -1        75 9.37826E-14 4.15542E-14 2.14320E-12-2.54946E-13-2.88194E-13-1.35312E-13
 -1        76-3.70427E-13-5.27697E-13 1.59947E-12-2.32866E-13-3.41124E-14 8.17769E-14
 -1        77 8.28370E-13 8.97426E-13 1.58692E-12 3.47516E-13-9.63886E-13-6.07409E-13
 -1        78-1.55785E-14 1.25865E-14 5.17255E-13-3.45790E-15-7.91833E-14-9.48759E-14
 -1        79 2.75645E-13 2.23114E-13 2.75393E-12-1.31176E-13-4.93093E-13-4.06712E-13
 -1        80 2.78856E-13 2.74528E-13 2.04734E-12-1.02931E-13-5.09391E-13-2.59250E-13
 -1        81 2.56382E-13 2.15073E-13 2.13909E-12-4.85995E-14-4.51159E-13-3.03046E-13
 -1        82 2.61108E-13 2.38053E-13 2.05450E-12-7.07812E-14-4.86312E-13-2.76874E-13
 -1        83 2.81206E-13 2.28204E-13 2.05275E-12-7.34171E-14-4.68993E-13-2.87223E-13
 -1        84 2.76414E-13 2.20012E-13 2.06161E-12-6.65174E-14-4.98902E-13-2.62367E-13
 -1        85 2.82815E-13 2.66163E-13 2.05559E-12-9.11928E-14-4.67046E-13-2.93544E-13
 -1        86 2.66693E-13 2.04259E-13 2.05778E-12-5.59720E-14-4.88425E-13-2.70188E-13
 -1        87 2.88415E-13 2.12971E-13 1.92654E-12-1.09476E-13-3.53108E-13-3.15407E-13
 -1        88 2.56551E-13 1.91041E-13 2.08764E-12-3.89933E-14-5.85799E-13-2.20402E-13
 -1        89 1.63563E-13 4.45484E-13 1.78421E-12-1.59370E-13-4.73210E-13-1.36543E-13
 -1        90 4.32611E-13 2.17975E-13 2.32453E-12-4.16107E-14-3.81376E-13-5.08795E-13
 -1        91 2.12737E-13-5.06474E-13 1.43028E-12-4.26281E-14-1.99168E-13-2.35806E-13
 -1        92-1.85151E-13 7.13641E-13 9.13857E-13-5.32677E-14-5.72483E-13 1.85537E-13
 -1        93 3.52887E-13 1.55358E-12 2.18534E-12 2.05581E-13-1.25858E-12-3.45588E-13