    1C
    1UUSER                                                              
    1UDATE              28.july.2022                                    
    1UTIME              20:02:56                                        
    1UHOST                                                              
    1UPGM               CalculiX                                        
    1UVERSION           Version DEVELOPMENT                             
    1UCOMPILETIME       Thu Jul 28 20:01:21 CEST 2022                    
    1UDIR                                                               
    1UDBN                                                               
    1UMAT    1MATERIAL-1                                                
    2C                            81                                     1
 -1         1 4.80000E+01 5.20000E+01 0.00000E+00
 -1         2 2.40000E+01 3.70000E+01 0.00000E+00
 -1         3 2.40000E+01 2.20000E+01 0.00000E+00
 -1         4 4.80000E+01 5.00000E+01 0.00000E+00
 -1         5 4.80000E+01 4.80000E+01 0.00000E+00
 -1         6 4.80000E+01 4.60000E+01 0.00000E+00
 -1         7 4.80000E+01 4.40000E+01 0.00000E+00
 -1         8 0.00000E+00 2.20000E+01 0.00000E+00
 -1         9 2.40000E+01 5.20000E+01 0.00000E+00
 -1        10 0.00000E+00 4.40000E+01 0.00000E+00
 -1        11 0.00000E+00 0.00000E+00 0.00000E+00
 -1        12 4.80000E+01 5.40000E+01 0.00000E+00
 -1        13 4.80000E+01 5.60000E+01 0.00000E+00
 -1        14 4.80000E+01 5.80000E+01 0.00000E+00
 -1        15 4.80000E+01 6.00000E+01 0.00000E+00
 -1        16 4.20000E+01 4.82500E+01 0.00000E+00
 -1        17 3.60000E+01 4.45000E+01 0.00000E+00
 -1        18 3.00000E+01 4.07500E+01 0.00000E+00
 -1        19 2.40000E+01 3.32500E+01 0.00000E+00
 -1        20 2.40000E+01 2.95000E+01 0.00000E+00
 -1        21 2.40000E+01 2.57500E+01 0.00000E+00
 -1        22 3.00000E+01 2.75000E+01 0.00000E+00
 -1        23 3.60000E+01 3.30000E+01 0.00000E+00
 -1        24 4.20000E+01 3.85000E+01 0.00000E+00
 -1        25 6.00000E+00 2.57500E+01 0.00000E+00
 -1        26 1.20000E+01 2.95000E+01 0.00000E+00
 -1        27 1.80000E+01 3.32500E+01 0.00000E+00
 -1        28 2.40000E+01 4.07500E+01 0.00000E+00
 -1        29 2.40000E+01 4.45000E+01 0.00000E+00
 -1        30 2.40000E+01 4.82500E+01 0.00000E+00
 -1        31 1.80000E+01 5.00000E+01 0.00000E+00
 -1        32 1.20000E+01 4.80000E+01 0.00000E+00
 -1        33 6.00000E+00 4.60000E+01 0.00000E+00
 -1        34 0.00000E+00 3.85000E+01 0.00000E+00
 -1        35 0.00000E+00 3.30000E+01 0.00000E+00
 -1        36 0.00000E+00 2.75000E+01 0.00000E+00
 -1        37 0.00000E+00 1.65000E+01 0.00000E+00
 -1        38 0.00000E+00 1.10000E+01 0.00000E+00
 -1        39 0.00000E+00 5.50000E+00 0.00000E+00
 -1        40 6.00000E+00 5.50000E+00 0.00000E+00
 -1        41 1.20000E+01 1.10000E+01 0.00000E+00
 -1        42 1.80000E+01 1.65000E+01 0.00000E+00
 -1        43 4.20000E+01 5.80000E+01 0.00000E+00
 -1        44 3.60000E+01 5.60000E+01 0.00000E+00
 -1        45 3.00000E+01 5.40000E+01 0.00000E+00
 -1        46 4.20000E+01 4.58125E+01 0.00000E+00
 -1        47 3.60000E+01 4.16250E+01 0.00000E+00
 -1        48 3.00000E+01 3.74375E+01 0.00000E+00
 -1        49 4.20000E+01 4.33750E+01 0.00000E+00
 -1        50 3.60000E+01 3.87500E+01 0.00000E+00
 -1        51 3.00000E+01 3.41250E+01 0.00000E+00
 -1        52 4.20000E+01 4.09375E+01 0.00000E+00
 -1        53 3.60000E+01 3.58750E+01 0.00000E+00
 -1        54 3.00000E+01 3.08125E+01 0.00000E+00
 -1        55 6.00000E+00 3.08125E+01 0.00000E+00
 -1        56 1.20000E+01 3.41250E+01 0.00000E+00
 -1        57 1.80000E+01 3.74375E+01 0.00000E+00
 -1        58 6.00000E+00 3.58750E+01 0.00000E+00
 -1        59 1.20000E+01 3.87500E+01 0.00000E+00
 -1        60 1.80000E+01 4.16250E+01 0.00000E+00
 -1        61 6.00000E+00 4.09375E+01 0.00000E+00
 -1        62 1.20000E+01 4.33750E+01 0.00000E+00
 -1        63 1.80000E+01 4.58125E+01 0.00000E+00
 -1        64 1.80000E+01 2.90625E+01 0.00000E+00
 -1        65 1.20000E+01 2.48750E+01 0.00000E+00
 -1        66 6.00000E+00 2.06875E+01 0.00000E+00
 -1        67 1.80000E+01 2.48750E+01 0.00000E+00
 -1        68 1.20000E+01 2.02500E+01 0.00000E+00
 -1        69 6.00000E+00 1.56250E+01 0.00000E+00
 -1        70 1.80000E+01 2.06875E+01 0.00000E+00
 -1        71 1.20000E+01 1.56250E+01 0.00000E+00
 -1        72 6.00000E+00 1.05625E+01 0.00000E+00
 -1        73 3.00000E+01 4.40625E+01 0.00000E+00
 -1        74 3.60000E+01 4.73750E+01 0.00000E+00
 -1        75 4.20000E+01 5.06875E+01 0.00000E+00
 -1        76 3.00000E+01 4.73750E+01 0.00000E+00
 -1        77 3.60000E+01 5.02500E+01 0.00000E+00
 -1        78 4.20000E+01 5.31250E+01 0.00000E+00
 -1        79 3.00000E+01 5.06875E+01 0.00000E+00
 -1        80 3.60000E+01 5.31250E+01 0.00000E+00
 -1        81 4.20000E+01 5.55625E+01 0.00000E+00
 -3
    3C                           128                                     1
 -1         1    7    0    1
 -2         1        16         4
 -1         2    7    0    1
 -2        16        46         4
 -1         3    7    0    1
 -2        16        17        46
 -1         4    7    0    1
 -2        17        47        46
 -1         5    7    0    1
 -2        17        18        47
 -1         6    7    0    1
 -2        18        48        47
 -1         7    7    0    1
 -2        18         2        48
 -1         8    7    0    1
 -2         2        19        48
 -1         9    7    0    1
 -2         4        46         5
 -1        10    7    0    1
 -2        46        49         5
 -1        11    7    0    1
 -2        46        47        49
 -1        12    7    0    1
 -2        47        50        49
 -1        13    7    0    1
 -2        47        48        50
 -1        14    7    0    1
 -2        48        51        50
 -1        15    7    0    1
 -2        48        19        51
 -1        16    7    0    1
 -2        19        20        51
 -1        17    7    0    1
 -2         5        49         6
 -1        18    7    0    1
 -2        49        52         6
 -1        19    7    0    1
 -2        49        50        52
 -1        20    7    0    1
 -2        50        53        52
 -1        21    7    0    1
 -2        50        51        53
 -1        22    7    0    1
 -2        51        54        53
 -1        23    7    0    1
 -2        51        20        54
 -1        24    7    0    1
 -2        20        21        54
 -1        25    7    0    1
 -2         6        52         7
 -1        26    7    0    1
 -2        52        24         7
 -1        27    7    0    1
 -2        52        53        24
 -1        28    7    0    1
 -2        53        23        24
 -1        29    7    0    1
 -2        53        54        23
 -1        30    7    0    1
 -2        54        22        23
 -1        31    7    0    1
 -2        54        21        22
 -1        32    7    0    1
 -2        21         3        22
 -1        33    7    0    1
 -2         8        25        36
 -1        34    7    0    1
 -2        25        55        36
 -1        35    7    0    1
 -2        25        26        55
 -1        36    7    0    1
 -2        26        56        55
 -1        37    7    0    1
 -2        26        27        56
 -1        38    7    0    1
 -2        27        57        56
 -1        39    7    0    1
 -2        27         2        57
 -1        40    7    0    1
 -2         2        28        57
 -1        41    7    0    1
 -2        36        55        35
 -1        42    7    0    1
 -2        55        58        35
 -1        43    7    0    1
 -2        55        56        58
 -1        44    7    0    1
 -2        56        59        58
 -1        45    7    0    1
 -2        56        57        59
 -1        46    7    0    1
 -2        57        60        59
 -1        47    7    0    1
 -2        57        28        60
 -1        48    7    0    1
 -2        28        29        60
 -1        49    7    0    1
 -2        35        58        34
 -1        50    7    0    1
 -2        58        61        34
 -1        51    7    0    1
 -2        58        59        61
 -1        52    7    0    1
 -2        59        62        61
 -1        53    7    0    1
 -2        59        60        62
 -1        54    7    0    1
 -2        60        63        62
 -1        55    7    0    1
 -2        60        29        63
 -1        56    7    0    1
 -2        29        30        63
 -1        57    7    0    1
 -2        34        61        10
 -1        58    7    0    1
 -2        61        33        10
 -1        59    7    0    1
 -2        61        62        33
 -1        60    7    0    1
 -2        62        32        33
 -1        61    7    0    1
 -2        62        63        32
 -1        62    7    0    1
 -2        63        31        32
 -1        63    7    0    1
 -2        63        30        31
 -1        64    7    0    1
 -2        30         9        31
 -1        65    7    0    1
 -2         2        27        19
 -1        66    7    0    1
 -2        27        64        19
 -1        67    7    0    1
 -2        27        26        64
 -1        68    7    0    1
 -2        26        65        64
 -1        69    7    0    1
 -2        26        25        65
 -1        70    7    0    1
 -2        25        66        65
 -1        71    7    0    1
 -2        25         8        66
 -1        72    7    0    1
 -2         8        37        66
 -1        73    7    0    1
 -2        19        64        20
 -1        74    7    0    1
 -2        64        67        20
 -1        75    7    0    1
 -2        64        65        67
 -1        76    7    0    1
 -2        65        68        67
 -1        77    7    0    1
 -2        65        66        68
 -1        78    7    0    1
 -2        66        69        68
 -1        79    7    0    1
 -2        66        37        69
 -1        80    7    0    1
 -2        37        38        69
 -1        81    7    0    1
 -2        20        67        21
 -1        82    7    0    1
 -2        67        70        21
 -1        83    7    0    1
 -2        67        68        70
 -1        84    7    0    1
 -2        68        71        70
 -1        85    7    0    1
 -2        68        69        71
 -1        86    7    0    1
 -2        69        72        71
 -1        87    7    0    1
 -2        69        38        72
 -1        88    7    0    1
 -2        38        39        72
 -1        89    7    0    1
 -2        21        70         3
 -1        90    7    0    1
 -2        70        42         3
 -1        91    7    0    1
 -2        70        71        42
 -1        92    7    0    1
 -2        71        41        42
 -1        93    7    0    1
 -2        71        72        41
 -1        94    7    0    1
 -2        72        40        41
 -1        95    7    0    1
 -2        72        39        40
 -1        96    7    0    1
 -2        39        11        40
 -1        97    7    0    1
 -2         2        18        28
 -1        98    7    0    1
 -2        18        73        28
 -1        99    7    0    1
 -2        18        17        73
 -1       100    7    0    1
 -2        17        74        73
 -1       101    7    0    1
 -2        17        16        74
 -1       102    7    0    1
 -2        16        75        74
 -1       103    7    0    1
 -2        16         1        75
 -1       104    7    0    1
 -2         1        12        75
 -1       105    7    0    1
 -2        28        73        29
 -1       106    7    0    1
 -2        73        76        29
 -1       107    7    0    1
 -2        73        74        76
 -1       108    7    0    1
 -2        74        77        76
 -1       109    7    0    1
 -2        74        75        77
 -1       110    7    0    1
 -2        75        78        77
 -1       111    7    0    1
 -2        75        12        78
 -1       112    7    0    1
 -2        12        13        78
 -1       113    7    0    1
 -2        29        76        30
 -1       114    7    0    1
 -2        76        79        30
 -1       115    7    0    1
 -2        76        77        79
 -1       116    7    0    1
 -2        77        80        79
 -1       117    7    0    1
 -2        77        78        80
 -1       118    7    0    1
 -2        78        81        80
 -1       119    7    0    1
 -2        78        13        81
 -1       120    7    0    1
 -2        13        14        81
 -1       121    7    0    1
 -2        30        79         9
 -1       122    7    0    1
 -2        79        45         9
 -1       123    7    0    1
 -2        79        80        45
 -1       124    7    0    1
 -2        80        44        45
 -1       125    7    0    1
 -2        80        81        44
 -1       126    7    0    1
 -2        81        43        44
 -1       127    7    0    1
 -2        81        14        43
 -1       128    7    0    1
 -2        14        15        43
 -3
    1PSTEP                         1           1           1          
  100CL  101 1.000000000          81                     0    1           1
 -4  DISP        7    1
 -5  D1          1    2    1    0
 -5  D2          1    2    2    0
 -5  D3          1    2    3    0
 -5  D4          1    1    0    0
 -5  D5          1    1    0    0
 -5  D6          1    1    0    0
 -5  ALL         1    2    0    0    1ALL
 -1         1-9.89199E+00 2.23152E+01 0.00000E+00 0.00000E+00 0.00000E+00 8.66669E-01
 -1         2-1.14400E+00 5.28700E+00 0.00000E+00 0.00000E+00 0.00000E+00 3.83521E-01
 -1         3 1.80407E+00 4.70655E+00 0.00000E+00 0.00000E+00 0.00000E+00 8.80026E-02
 -1         4-8.46182E+00 2.21304E+01 0.00000E+00 0.00000E+00 0.00000E+00 8.25164E-01
 -1         5-7.08477E+00 2.19670E+01 0.00000E+00 0.00000E+00 0.00000E+00 8.10955E-01
 -1         6-5.72963E+00 2.18351E+01 0.00000E+00 0.00000E+00 0.00000E+00 7.92796E-01
 -1         7-4.35450E+00 2.17988E+01 0.00000E+00 0.00000E+00 0.00000E+00 1.08995E+00
 -1         8 0.00000E+00 0.00000E+00 0.00000E+00 0.00000E+00 0.00000E+00 0.00000E+00
 -1         9-7.91576E+00 5.80145E+00 0.00000E+00 0.00000E+00 0.00000E+00 4.32583E-01
 -1        10 0.00000E+00 0.00000E+00 0.00000E+00 0.00000E+00 0.00000E+00 0.00000E+00
 -1        11 0.00000E+00 0.00000E+00 0.00000E+00 0.00000E+00 0.00000E+00 0.00000E+00
 -1        12-1.14020E+01 2.25054E+01 0.00000E+00 0.00000E+00 0.00000E+00 9.18067E-01
 -1        13-1.30156E+01 2.26861E+01 0.00000E+00 0.00000E+00 0.00000E+00 9.82332E-01
 -1        14-1.47502E+01 2.28351E+01 0.00000E+00 0.00000E+00 0.00000E+00 1.02890E+00
 -1        15-1.66726E+01 2.29785E+01 0.00000E+00 0.00000E+00 0.00000E+00 1.45601E+00
 -1        16-7.10455E+00 1.68672E+01 0.00000E+00 0.00000E+00 0.00000E+00 7.47442E-01
 -1        17-4.64500E+00 1.21724E+01 0.00000E+00 0.00000E+00 0.00000E+00 6.43341E-01
 -1        18-2.64123E+00 8.31491E+00 0.00000E+00 0.00000E+00 0.00000E+00 5.09334E-01
 -1        19-3.67481E-02 5.17181E+00 0.00000E+00 0.00000E+00 0.00000E+00 3.43191E-01
 -1        20 8.28353E-01 5.05053E+00 0.00000E+00 0.00000E+00 0.00000E+00 2.86726E-01
 -1        21 1.44597E+00 4.90473E+00 0.00000E+00 0.00000E+00 0.00000E+00 2.65438E-01
 -1        22 1.68848E+00 7.64144E+00 0.00000E+00 0.00000E+00 0.00000E+00 2.32377E-01
 -1        23 7.67519E-01 1.15059E+01 0.00000E+00 0.00000E+00 0.00000E+00 3.76184E-01
 -1        24-1.17281E+00 1.62628E+01 0.00000E+00 0.00000E+00 0.00000E+00 4.95775E-01
 -1        25 2.73788E-01 5.26660E-01 0.00000E+00 0.00000E+00 0.00000E+00 6.43645E-02
 -1        26 2.79793E-01 1.46952E+00 0.00000E+00 0.00000E+00 0.00000E+00 1.51500E-01
 -1        27-1.67876E-01 3.02709E+00 0.00000E+00 0.00000E+00 0.00000E+00 2.67922E-01
 -1        28-2.48967E+00 5.40683E+00 0.00000E+00 0.00000E+00 0.00000E+00 4.19137E-01
 -1        29-4.06697E+00 5.53269E+00 0.00000E+00 0.00000E+00 0.00000E+00 4.53857E-01
 -1        30-5.87427E+00 5.66337E+00 0.00000E+00 0.00000E+00 0.00000E+00 4.98385E-01
 -1        31-5.87084E+00 3.49537E+00 0.00000E+00 0.00000E+00 0.00000E+00 3.04170E-01
 -1        32-3.95877E+00 1.82774E+00 0.00000E+00 0.00000E+00 0.00000E+00 2.01140E-01
 -1        33-2.10918E+00 7.12373E-01 0.00000E+00 0.00000E+00 0.00000E+00 1.51852E-01
 -1        34 0.00000E+00 0.00000E+00 0.00000E+00 0.00000E+00 0.00000E+00 0.00000E+00
 -1        35 0.00000E+00 0.00000E+00 0.00000E+00 0.00000E+00 0.00000E+00 0.00000E+00
 -1        36 0.00000E+00 0.00000E+00 0.00000E+00 0.00000E+00 0.00000E+00 0.00000E+00
 -1        37 0.00000E+00 0.00000E+00 0.00000E+00 0.00000E+00 0.00000E+00 0.00000E+00
 -1        38 0.00000E+00 0.00000E+00 0.00000E+00 0.00000E+00 0.00000E+00 0.00000E+00
 -1        39 0.00000E+00 0.00000E+00 0.00000E+00 0.00000E+00 0.00000E+00 0.00000E+00
 -1        40 2.76403E-01 5.81683E-01 0.00000E+00 0.00000E+00 0.00000E+00-2.42008E-02
 -1        41 7.68331E-01 1.39816E+00 0.00000E+00 0.00000E+00 0.00000E+00-8.73640E-02
 -1        42 1.38201E+00 2.67527E+00 0.00000E+00 0.00000E+00 0.00000E+00-3.24873E-02
 -1        43-1.45427E+01 1.72772E+01 0.00000E+00 0.00000E+00 0.00000E+00 7.87037E-01
 -1        44-1.23229E+01 1.26422E+01 0.00000E+00 0.00000E+00 0.00000E+00 7.16800E-01
 -1        45-1.00861E+01 8.83039E+00 0.00000E+00 0.00000E+00 0.00000E+00 5.70436E-01
 -1        46-5.53555E+00 1.67113E+01 0.00000E+00 0.00000E+00 0.00000E+00 7.49071E-01
 -1        47-3.08427E+00 1.20131E+01 0.00000E+00 0.00000E+00 0.00000E+00 6.07988E-01
 -1        48-1.24808E+00 8.16599E+00 0.00000E+00 0.00000E+00 0.00000E+00 4.72175E-01
 -1        49-4.02255E+00 1.65520E+01 0.00000E+00 0.00000E+00 0.00000E+00 7.60318E-01
 -1        50-1.65066E+00 1.18499E+01 0.00000E+00 0.00000E+00 0.00000E+00 5.86618E-01
 -1        51-5.16083E-02 8.01052E+00 0.00000E+00 0.00000E+00 0.00000E+00 4.20649E-01
 -1        52-2.55527E+00 1.64004E+01 0.00000E+00 0.00000E+00 0.00000E+00 6.92198E-01
 -1        53-3.55027E-01 1.16839E+01 0.00000E+00 0.00000E+00 0.00000E+00 5.93673E-01
 -1        54 9.32259E-01 7.84151E+00 0.00000E+00 0.00000E+00 0.00000E+00 4.17821E-01
 -1        55 2.91003E-02 4.38643E-01 0.00000E+00 0.00000E+00 0.00000E+00 8.57656E-02
 -1        56-3.20172E-01 1.44610E+00 0.00000E+00 0.00000E+00 0.00000E+00 2.03101E-01
 -1        57-1.17347E+00 3.09451E+00 0.00000E+00 0.00000E+00 0.00000E+00 3.17086E-01
 -1        58-3.37997E-01 3.86108E-01 0.00000E+00 0.00000E+00 0.00000E+00 1.21324E-01
 -1        59-1.17095E+00 1.48744E+00 0.00000E+00 0.00000E+00 0.00000E+00 2.72779E-01
 -1        60-2.46114E+00 3.19976E+00 0.00000E+00 0.00000E+00 0.00000E+00 3.45295E-01
 -1        61-9.08838E-01 4.29842E-01 0.00000E+00 0.00000E+00 0.00000E+00 2.86320E-01
 -1        62-2.38593E+00 1.63288E+00 0.00000E+00 0.00000E+00 0.00000E+00 2.80190E-01
 -1        63-4.02968E+00 3.33576E+00 0.00000E+00 0.00000E+00 0.00000E+00 3.85144E-01
 -1        64 5.81642E-01 2.98144E+00 0.00000E+00 0.00000E+00 0.00000E+00 2.18656E-01
 -1        65 6.79193E-01 1.51491E+00 0.00000E+00 0.00000E+00 0.00000E+00 1.13052E-01
 -1        66 4.13698E-01 6.13852E-01 0.00000E+00 0.00000E+00 0.00000E+00 5.07929E-02
 -1        67 1.09101E+00 2.93021E+00 0.00000E+00 0.00000E+00 0.00000E+00 1.62986E-01
 -1        68 8.91927E-01 1.54316E+00 0.00000E+00 0.00000E+00 0.00000E+00 7.18142E-02
 -1        69 4.53451E-01 6.70254E-01 0.00000E+00 0.00000E+00 0.00000E+00 3.63496E-02
 -1        70 1.36142E+00 2.84111E+00 0.00000E+00 0.00000E+00 0.00000E+00 1.40610E-01
 -1        71 9.20052E-01 1.51686E+00 0.00000E+00 0.00000E+00 0.00000E+00 6.82757E-02
 -1        72 3.98416E-01 6.67925E-01 0.00000E+00 0.00000E+00 0.00000E+00 6.25282E-02
 -1        73-4.21753E+00 8.45778E+00 0.00000E+00 0.00000E+00 0.00000E+00 5.41617E-01
 -1        74-6.33085E+00 1.23205E+01 0.00000E+00 0.00000E+00 0.00000E+00 6.73678E-01
 -1        75-8.75780E+00 1.70091E+01 0.00000E+00 0.00000E+00 0.00000E+00 7.59696E-01
 -1        76-5.97560E+00 8.59191E+00 0.00000E+00 0.00000E+00 0.00000E+00 5.74516E-01
 -1        77-8.15563E+00 1.24500E+01 0.00000E+00 0.00000E+00 0.00000E+00 7.03315E-01
 -1        78-1.05274E+01 1.71286E+01 0.00000E+00 0.00000E+00 0.00000E+00 7.86752E-01
 -1        79-7.92569E+00 8.71520E+00 0.00000E+00 0.00000E+00 0.00000E+00 6.18161E-01
 -1        80-1.01438E+01 1.25566E+01 0.00000E+00 0.00000E+00 0.00000E+00 7.43023E-01
 -1        81-1.24462E+01 1.72193E+01 0.00000E+00 0.00000E+00 0.00000E+00 8.32378E-01
 -3
    1PSTEP                         2           1           1          
  100CL  101 1.000000000          81                     0    1           1
 -4  STRNEG      6    1
 -5  SXX         1    4    1    1
 -5  SYY         1    4    2    2
 -5  SZZ         1    4    3    3
 -5  SXY         1    4    1    2
 -5  SYZ         1    4    2    3
 -5  SZX         1    4    3    1
 -1         1-1.69798E-03 7.96204E-02 0.00000E+00 5.57897E-02 0.00000E+00 0.00000E+00
 -1         2 8.02468E-03 3.37528E-02 0.00000E+00 3.50377E-02 0.00000E+00 0.00000E+00
 -1         3 1.08604E-01 8.63582E-02 0.00000E+00 1.04679E-01 0.00000E+00 0.00000E+00
 -1         4 4.70053E-03 7.97307E-02 0.00000E+00 6.43508E-02 0.00000E+00 0.00000E+00
 -1         5 1.54188E-02 7.52656E-02 0.00000E+00 7.10445E-02 0.00000E+00 0.00000E+00
 -1         6 3.71041E-02 6.81245E-02 0.00000E+00 7.61741E-02 0.00000E+00 0.00000E+00
 -1         7 5.26935E-02 6.91983E-02 0.00000E+00 8.56568E-02 0.00000E+00 0.00000E+00
 -1         8 6.45991E-02 1.56802E-02 0.00000E+00 3.23409E-02 0.00000E+00 0.00000E+00
 -1         9-1.45512E-01-1.17644E-02 0.00000E+00-4.68498E-02 0.00000E+00 0.00000E+00
 -1        10-2.28273E-01-4.65264E-02 0.00000E+00-1.26659E-02 0.00000E+00 0.00000E+00
 -1        11 5.13056E-02 1.71019E-02 0.00000E+00 3.67333E-02 0.00000E+00 0.00000E+00
 -1        12-6.77098E-03 7.39652E-02 0.00000E+00 4.47549E-02 0.00000E+00 0.00000E+00
 -1        13-1.25153E-02 6.16555E-02 0.00000E+00 3.06545E-02 0.00000E+00 0.00000E+00
 -1        14-2.10383E-02 3.89940E-02 0.00000E+00 1.22553E-02 0.00000E+00 0.00000E+00
 -1        15-2.39210E-02 3.70370E-02 0.00000E+00-2.62341E-03 0.00000E+00 0.00000E+00
 -1        16-9.20529E-03 6.14239E-02 0.00000E+00 5.49090E-02 0.00000E+00 0.00000E+00
 -1        17-6.13508E-03 5.16609E-02 0.00000E+00 4.36042E-02 0.00000E+00 0.00000E+00
 -1        18 1.36358E-03 4.43197E-02 0.00000E+00 3.65569E-02 0.00000E+00 0.00000E+00
 -1        19 4.66678E-02 4.61359E-02 0.00000E+00 5.48056E-02 0.00000E+00 0.00000E+00
 -1        20 8.01092E-02 6.12450E-02 0.00000E+00 7.36095E-02 0.00000E+00 0.00000E+00
 -1        21 1.05679E-01 7.83605E-02 0.00000E+00 9.20890E-02 0.00000E+00 0.00000E+00
 -1        22 1.09986E-01 9.65160E-02 0.00000E+00 1.13215E-01 0.00000E+00 0.00000E+00
 -1        23 1.01644E-01 9.76009E-02 0.00000E+00 1.11707E-01 0.00000E+00 0.00000E+00
 -1        24 8.10530E-02 8.84321E-02 0.00000E+00 9.81613E-02 0.00000E+00 0.00000E+00
 -1        25 4.94413E-02 3.13514E-03 0.00000E+00 3.27975E-02 0.00000E+00 0.00000E+00
 -1        26 3.29031E-02 4.77096E-03 0.00000E+00 3.80922E-02 0.00000E+00 0.00000E+00
 -1        27 1.72412E-02 1.90321E-02 0.00000E+00 3.74482E-02 0.00000E+00 0.00000E+00
 -1        28-3.30800E-02 2.21270E-02 0.00000E+00 1.42636E-02 0.00000E+00 0.00000E+00
 -1        29-7.54653E-02 9.80121E-03 0.00000E+00-7.34308E-03 0.00000E+00 0.00000E+00
 -1        30-1.19451E-01-4.04879E-03 0.00000E+00-3.02422E-02 0.00000E+00 0.00000E+00
 -1        31-1.58324E-01-1.43594E-02 0.00000E+00-5.09310E-02 0.00000E+00 0.00000E+00
 -1        32-1.73136E-01-1.61120E-02 0.00000E+00-5.14999E-02 0.00000E+00 0.00000E+00
 -1        33-2.11971E-01-1.86947E-02 0.00000E+00-4.41853E-02 0.00000E+00 0.00000E+00
 -1        34-1.16309E-01-3.72481E-02 0.00000E+00 1.03430E-02 0.00000E+00 0.00000E+00
 -1        35-2.85609E-02-1.32721E-02 0.00000E+00 1.62569E-02 0.00000E+00 0.00000E+00
 -1        36 2.87594E-02 3.61499E-03 0.00000E+00 2.40333E-02 0.00000E+00 0.00000E+00
 -1        37 8.09118E-02 2.31380E-02 0.00000E+00 3.93289E-02 0.00000E+00 0.00000E+00
 -1        38 7.87628E-02 2.66230E-02 0.00000E+00 4.28431E-02 0.00000E+00 0.00000E+00
 -1        39 6.16759E-02 2.55233E-02 0.00000E+00 4.12906E-02 0.00000E+00 0.00000E+00
 -1        40 6.02004E-02 3.14238E-02 0.00000E+00 4.60618E-02 0.00000E+00 0.00000E+00
 -1        41 7.99589E-02 5.01552E-02 0.00000E+00 6.48741E-02 0.00000E+00 0.00000E+00
 -1        42 9.80364E-02 6.90387E-02 0.00000E+00 8.69444E-02 0.00000E+00 0.00000E+00
 -1        43-4.57440E-02 1.55910E-02 0.00000E+00-5.14741E-03 0.00000E+00 0.00000E+00
 -1        44-9.42755E-02-2.90330E-03 0.00000E+00-2.68955E-02 0.00000E+00 0.00000E+00
 -1        45-1.26056E-01-8.54091E-03 0.00000E+00-3.87964E-02 0.00000E+00 0.00000E+00
 -1        46 7.62170E-03 6.85982E-02 0.00000E+00 6.39491E-02 0.00000E+00 0.00000E+00
 -1        47 2.47461E-02 6.43602E-02 0.00000E+00 5.71441E-02 0.00000E+00 0.00000E+00
 -1        48 3.76073E-02 5.78185E-02 0.00000E+00 5.47565E-02 0.00000E+00 0.00000E+00
 -1        49 3.12299E-02 7.33543E-02 0.00000E+00 7.18925E-02 0.00000E+00 0.00000E+00
 -1        50 5.94903E-02 7.59414E-02 0.00000E+00 7.21919E-02 0.00000E+00 0.00000E+00
 -1        51 7.29970E-02 7.23638E-02 0.00000E+00 7.40222E-02 0.00000E+00 0.00000E+00
 -1        52 6.39512E-02 7.65733E-02 0.00000E+00 8.19688E-02 0.00000E+00 0.00000E+00
 -1        53 9.44083E-02 8.75974E-02 0.00000E+00 9.09844E-02 0.00000E+00 0.00000E+00
 -1        54 1.04233E-01 8.72204E-02 0.00000E+00 9.51733E-02 0.00000E+00 0.00000E+00
 -1        55 4.01457E-03-8.99254E-03 0.00000E+00 2.29178E-02 0.00000E+00 0.00000E+00
 -1        56-1.77653E-02-3.77498E-03 0.00000E+00 2.39429E-02 0.00000E+00 0.00000E+00
 -1        57-3.00171E-02 1.06702E-02 0.00000E+00 1.72042E-02 0.00000E+00 0.00000E+00
 -1        58-6.28053E-02-2.03390E-02 0.00000E+00 1.15536E-02 0.00000E+00 0.00000E+00
 -1        59-8.15235E-02-7.54592E-03 0.00000E+00 2.72602E-03 0.00000E+00 0.00000E+00
 -1        60-7.91473E-02 3.49713E-03 0.00000E+00-7.25472E-03 0.00000E+00 0.00000E+00
 -1        61-1.59335E-01-2.64214E-02 0.00000E+00-1.11116E-02 0.00000E+00 0.00000E+00
 -1        62-1.40893E-01-8.47483E-03 0.00000E+00-2.97785E-02 0.00000E+00 0.00000E+00
 -1        63-1.28420E-01-7.04879E-03 0.00000E+00-3.31722E-02 0.00000E+00 0.00000E+00
 -1        64 5.68012E-02 3.02594E-02 0.00000E+00 5.40743E-02 0.00000E+00 0.00000E+00
 -1        65 6.83101E-02 1.64096E-02 0.00000E+00 4.92865E-02 0.00000E+00 0.00000E+00
 -1        66 7.58302E-02 1.46180E-02 0.00000E+00 4.16006E-02 0.00000E+00 0.00000E+00
 -1        67 8.54446E-02 4.51815E-02 0.00000E+00 6.84898E-02 0.00000E+00 0.00000E+00
 -1        68 8.75574E-02 3.06828E-02 0.00000E+00 5.86969E-02 0.00000E+00 0.00000E+00
 -1        69 8.36384E-02 2.52509E-02 0.00000E+00 4.82062E-02 0.00000E+00 0.00000E+00
 -1        70 1.01002E-01 6.27479E-02 0.00000E+00 8.15931E-02 0.00000E+00 0.00000E+00
 -1        71 8.98471E-02 4.61080E-02 0.00000E+00 6.58772E-02 0.00000E+00 0.00000E+00
 -1        72 7.42428E-02 3.41558E-02 0.00000E+00 5.05196E-02 0.00000E+00 0.00000E+00
 -1        73-3.46160E-02 3.04876E-02 0.00000E+00 1.85694E-02 0.00000E+00 0.00000E+00
 -1        74-3.32269E-02 3.76520E-02 0.00000E+00 2.90012E-02 0.00000E+00 0.00000E+00
 -1        75-2.20661E-02 5.14243E-02 0.00000E+00 4.29694E-02 0.00000E+00 0.00000E+00
 -1        76-7.02519E-02 1.58297E-02 0.00000E+00-6.76752E-04 0.00000E+00 0.00000E+00
 -1        77-5.83887E-02 2.23300E-02 0.00000E+00 1.13142E-02 0.00000E+00 0.00000E+00
 -1        78-3.38279E-02 3.83384E-02 0.00000E+00 2.71039E-02 0.00000E+00 0.00000E+00
 -1        79-1.06811E-01 6.16097E-05 0.00000E+00-2.26041E-02 0.00000E+00 0.00000E+00
 -1        80-8.42449E-02 5.51017E-03 0.00000E+00-1.06670E-02 0.00000E+00 0.00000E+00
 -1        81-4.70011E-02 2.13571E-02 0.00000E+00 6.70503E-03 0.00000E+00 0.00000E+00
 -3
    1PSTEP                         3           1           1          
  100CL  101 1.000000000          81                     0    1           1
 -4  STRMID      6    1
 -5  SXX         1    4    1    1
 -5  SYY         1    4    2    2
 -5  SZZ         1    4    3    3
 -5  SXY         1    4    1    2
 -5  SYZ         1    4    2    3
 -5  SZX         1    4    3    1
 -1         1-1.69798E-03 7.96204E-02 0.00000E+00 5.57897E-02 0.00000E+00 0.00000E+00
 -1         2 8.02468E-03 3.37528E-02 0.00000E+00 3.50377E-02 0.00000E+00 0.00000E+00
 -1         3 1.08604E-01 8.63582E-02 0.00000E+00 1.04679E-01 0.00000E+00 0.00000E+00
 -1         4 4.70053E-03 7.97307E-02 0.00000E+00 6.43508E-02 0.00000E+00 0.00000E+00
 -1         5 1.54188E-02 7.52656E-02 0.00000E+00 7.10445E-02 0.00000E+00 0.00000E+00
 -1         6 3.71041E-02 6.81245E-02 0.00000E+00 7.61741E-02 0.00000E+00 0.00000E+00
 -1         7 5.26935E-02 6.91983E-02 0.00000E+00 8.56568E-02 0.00000E+00 0.00000E+00
 -1         8 6.45991E-02 1.56802E-02 0.00000E+00 3.23409E-02 0.00000E+00 0.00000E+00
 -1         9-1.45512E-01-1.17644E-02 0.00000E+00-4.68498E-02 0.00000E+00 0.00000E+00
 -1        10-2.28273E-01-4.65264E-02 0.00000E+00-1.26659E-02 0.00000E+00 0.00000E+00
 -1        11 5.13056E-02 1.71019E-02 0.00000E+00 3.67333E-02 0.00000E+00 0.00000E+00
 -1        12-6.77098E-03 7.39652E-02 0.00000E+00 4.47549E-02 0.00000E+00 0.00000E+00
 -1        13-1.25153E-02 6.16555E-02 0.00000E+00 3.06545E-02 0.00000E+00 0.00000E+00
 -1        14-2.10383E-02 3.89940E-02 0.00000E+00 1.22553E-02 0.00000E+00 0.00000E+00
 -1        15-2.39210E-02 3.70370E-02 0.00000E+00-2.62341E-03 0.00000E+00 0.00000E+00
 -1        16-9.20529E-03 6.14239E-02 0.00000E+00 5.49090E-02 0.00000E+00 0.00000E+00
 -1        17-6.13508E-03 5.16609E-02 0.00000E+00 4.36042E-02 0.00000E+00 0.00000E+00
 -1        18 1.36358E-03 4.43197E-02 0.00000E+00 3.65569E-02 0.00000E+00 0.00000E+00
 -1        19 4.66678E-02 4.61359E-02 0.00000E+00 5.48056E-02 0.00000E+00 0.00000E+00
 -1        20 8.01092E-02 6.12450E-02 0.00000E+00 7.36095E-02 0.00000E+00 0.00000E+00
 -1        21 1.05679E-01 7.83605E-02 0.00000E+00 9.20890E-02 0.00000E+00 0.00000E+00