    1C
    1UUSER                                                              
    1UDATE              28.july.2022                                    
    1UTIME              21:25:03                                        
    1UHOST                                                              
    1UPGM               CalculiX                                        
    1UVERSION           Version DEVELOPMENT                             
    1UCOMPILETIME       Thu Jul 28 20:01:21 CEST 2022                    
    1UDIR                                                               
    1UDBN                                                               
    1UMAT    1MATERIAL-1                                                
    2C                           441                                     1
 -1         1 5.00000E+00 5.00000E+00 0.00000E+00
 -1         2 4.50000E+00 5.00000E+00 0.00000E+00
 -1         3 4.00000E+00 5.00000E+00 0.00000E+00
 -1         4 3.50000E+00 5.00000E+00 0.00000E+00
 -1         5 3.00000E+00 5.00000E+00 0.00000E+00
 -1         6 2.50000E+00 5.00000E+00 0.00000E+00
 -1         7 2.00000E+00 5.00000E+00 0.00000E+00
 -1         8 1.50000E+00 5.00000E+00 0.00000E+00
 -1         9 1.00000E+00 5.00000E+00 0.00000E+00
 -1        10 5.00000E-01 5.00000E+00 0.00000E+00
 -1        11 0.00000E+00 5.00000E+00 0.00000E+00
 -1        12-5.00000E-01 5.00000E+00 0.00000E+00
 -1        13-1.00000E+00 5.00000E+00 0.00000E+00
 -1        14-1.50000E+00 5.00000E+00 0.00000E+00
 -1        15-2.00000E+00 5.00000E+00 0.00000E+00
 -1        16-2.50000E+00 5.00000E+00 0.00000E+00
 -1        17-3.00000E+00 5.00000E+00 0.00000E+00
 -1        18-3.50000E+00 5.00000E+00 0.00000E+00
 -1        19-4.00000E+00 5.00000E+00 0.00000E+00
 -1        20-4.50000E+00 5.00000E+00 0.00000E+00
 -1        21-5.00000E+00 5.00000E+00 0.00000E+00
 -1        22 5.00000E+00 4.50000E+00 0.00000E+00
 -1        23 4.50000E+00 4.50000E+00 0.00000E+00
 -1        24 4.00000E+00 4.50000E+00 0.00000E+00
 -1        25 3.50000E+00 4.50000E+00 0.00000E+00
 -1        26 3.00000E+00 4.50000E+00 0.00000E+00
 -1        27 2.50000E+00 4.50000E+00 0.00000E+00
 -1        28 2.00000E+00 4.50000E+00 0.00000E+00
 -1        29 1.50000E+00 4.50000E+00 0.00000E+00
 -1        30 1.00000E+00 4.50000E+00 0.00000E+00
 -1        31 5.00000E-01 4.50000E+00 0.00000E+00
 -1        32 0.00000E+00 4.50000E+00 0.00000E+00
 -1        33-5.00000E-01 4.50000E+00 0.00000E+00
 -1        34-1.00000E+00 4.50000E+00 0.00000E+00
 -1        35-1.50000E+00 4.50000E+00 0.00000E+00
 -1        36-2.00000E+00 4.50000E+00 0.00000E+00
 -1        37-2.50000E+00 4.50000E+00 0.00000E+00
 -1        38-3.00000E+00 4.50000E+00 0.00000E+00
 -1        39-3.50000E+00 4.50000E+00 0.00000E+00
 -1        40-4.00000E+00 4.50000E+00 0.00000E+00
 -1        41-4.50000E+00 4.50000E+00 0.00000E+00
 -1        42-5.00000E+00 4.50000E+00 0.00000E+00
 -1        43 5.00000E+00 4.00000E+00 0.00000E+00
 -1        44 4.50000E+00 4.00000E+00 0.00000E+00
 -1        45 4.00000E+00 4.00000E+00 0.00000E+00
 -1        46 3.50000E+00 4.00000E+00 0.00000E+00
 -1        47 3.00000E+00 4.00000E+00 0.00000E+00
 -1        48 2.50000E+00 4.00000E+00 0.00000E+00
 -1        49 2.00000E+00 4.00000E+00 0.00000E+00
 -1        50 1.50000E+00 4.00000E+00 0.00000E+00
 -1        51 1.00000E+00 4.00000E+00 0.00000E+00
 -1        52 5.00000E-01 4.00000E+00 0.00000E+00
 -1        53 0.00000E+00 4.00000E+00 0.00000E+00
 -1        54-5.00000E-01 4.00000E+00 0.00000E+00
 -1        55-1.00000E+00 4.00000E+00 0.00000E+00
 -1        56-1.50000E+00 4.00000E+00 0.00000E+00
 -1        57-2.00000E+00 4.00000E+00 0.00000E+00
 -1        58-2.50000E+00 4.00000E+00 0.00000E+00
 -1        59-3.00000E+00 4.00000E+00 0.00000E+00
 -1        60-3.50000E+00 4.00000E+00 0.00000E+00
 -1        61-4.00000E+00 4.00000E+00 0.00000E+00
 -1        62-4.50000E+00 4.00000E+00 0.00000E+00
 -1        63-5.00000E+00 4.00000E+00 0.00000E+00
 -1        64 5.00000E+00 3.50000E+00 0.00000E+00
 -1        65 4.50000E+00 3.50000E+00 0.00000E+00
 -1        66 4.00000E+00 3.50000E+00 0.00000E+00
 -1        67 3.50000E+00 3.50000E+00 0.00000E+00
 -1        68 3.00000E+00 3.50000E+00 0.00000E+00
 -1        69 2.50000E+00 3.50000E+00 0.00000E+00
 -1        70 2.00000E+00 3.50000E+00 0.00000E+00
 -1        71 1.50000E+00 3.50000E+00 0.00000E+00
 -1        72 1.00000E+00 3.50000E+00 0.00000E+00
 -1        73 5.00000E-01 3.50000E+00 0.00000E+00
 -1        74 0.00000E+00 3.50000E+00 0.00000E+00
 -1        75-5.00000E-01 3.50000E+00 0.00000E+00
 -1        76-1.00000E+00 3.50000E+00 0.00000E+00
 -1        77-1.50000E+00 3.50000E+00 0.00000E+00
 -1        78-2.00000E+00 3.50000E+00 0.00000E+00
 -1        79-2.50000E+00 3.50000E+00 0.00000E+00
 -1        80-3.00000E+00 3.50000E+00 0.00000E+00
 -1        81-3.50000E+00 3.50000E+00 0.00000E+00
 -1        82-4.00000E+00 3.50000E+00 0.00000E+00
 -1        83-4.50000E+00 3.50000E+00 0.00000E+00
 -1        84-5.00000E+00 3.50000E+00 0.00000E+00
 -1        85 5.00000E+00 3.00000E+00 0.00000E+00
 -1        86 4.50000E+00 3.00000E+00 0.00000E+00
 -1        87 4.00000E+00 3.00000E+00 0.00000E+00
 -1        88 3.50000E+00 3.00000E+00 0.00000E+00
 -1        89 3.00000E+00 3.00000E+00 0.00000E+00
 -1        90 2.50000E+00 3.00000E+00 0.00000E+00
 -1        91 2.00000E+00 3.00000E+00 0.00000E+00
 -1        92 1.50000E+00 3.00000E+00 0.00000E+00
 -1        93 1.00000E+00 3.00000E+00 0.00000E+00
 -1        94 5.00000E-01 3.00000E+00 0.00000E+00
 -1        95 0.00000E+00 3.00000E+00 0.00000E+00
 -1        96-5.00000E-01 3.00000E+00 0.00000E+00
 -1        97-1.00000E+00 3.00000E+00 0.00000E+00
 -1        98-1.50000E+00 3.00000E+00 0.00000E+00
 -1        99-2.00000E+00 3.00000E+00 0.00000E+00
 -1       100-2.50000E+00 3.00000E+00 0.00000E+00
 -1       101-3.00000E+00 3.00000E+00 0.00000E+00
 -1       102-3.50000E+00 3.00000E+00 0.00000E+00
 -1       103-4.00000E+00 3.00000E+00 0.00000E+00
 -1       104-4.50000E+00 3.00000E+00 0.00000E+00
 -1       105-5.00000E+00 3.00000E+00 0.00000E+00
 -1       106 5.00000E+00 2.50000E+00 0.00000E+00
 -1       107 4.50000E+00 2.50000E+00 0.00000E+00
 -1       108 4.00000E+00 2.50000E+00 0.00000E+00
 -1       109 3.50000E+00 2.50000E+00 0.00000E+00
 -1       110 3.00000E+00 2.50000E+00 0.00000E+00
 -1       111 2.50000E+00 2.50000E+00 0.00000E+00
 -1       112 2.00000E+00 2.50000E+00 0.00000E+00
 -1       113 1.50000E+00 2.50000E+00 0.00000E+00
 -1       114 1.00000E+00 2.50000E+00 0.00000E+00
 -1       115 5.00000E-01 2.50000E+00 0.00000E+00
 -1       116 0.00000E+00 2.50000E+00 0.00000E+00
 -1       117-5.00000E-01 2.50000E+00 0.00000E+00
 -1       118-1.00000E+00 2.50000E+00 0.00000E+00
 -1       119-1.50000E+00 2.50000E+00 0.00000E+00
 -1       120-2.00000E+00 2.50000E+00 0.00000E+00
 -1       121-2.50000E+00 2.50000E+00 0.00000E+00
 -1       122-3.00000E+00 2.50000E+00 0.00000E+00
 -1       123-3.50000E+00 2.50000E+00 0.00000E+00
 -1       124-4.00000E+00 2.50000E+00 0.00000E+00
 -1       125-4.50000E+00 2.50000E+00 0.00000E+00
 -1       126-5.00000E+00 2.50000E+00 0.00000E+00
 -1       127 5.00000E+00 2.00000E+00 0.00000E+00
 -1       128 4.50000E+00 2.00000E+00 0.00000E+00
 -1       129 4.00000E+00 2.00000E+00 0.00000E+00
 -1       130 3.50000E+00 2.00000E+00 0.00000E+00
 -1       131 3.00000E+00 2.00000E+00 0.00000E+00
 -1       132 2.50000E+00 2.00000E+00 0.00000E+00
 -1       133 2.00000E+00 2.00000E+00 0.00000E+00
 -1       134 1.50000E+00 2.00000E+00 0.00000E+00
 -1       135 1.00000E+00 2.00000E+00 0.00000E+00
 -1       136 5.00000E-01 2.00000E+00 0.00000E+00
 -1       137 0.00000E+00 2.00000E+00 0.00000E+00
 -1       138-5.00000E-01 2.00000E+00 0.00000E+00
 -1       139-1.00000E+00 2.00000E+00 0.00000E+00
 -1       140-1.50000E+00 2.00000E+00 0.00000E+00
 -1       141-2.00000E+00 2.00000E+00 0.00000E+00
 -1       142-2.50000E+00 2.00000E+00 0.00000E+00
 -1       143-3.00000E+00 2.00000E+00 0.00000E+00
 -1       144-3.50000E+00 2.00000E+00 0.00000E+00
 -1       145-4.00000E+00 2.00000E+00 0.00000E+00
 -1       146-4.50000E+00 2.00000E+00 0.00000E+00
 -1       147-5.00000E+00 2.00000E+00 0.00000E+00
 -1       148 5.00000E+00 1.50000E+00 0.00000E+00
 -1       149 4.50000E+00 1.50000E+00 0.00000E+00
 -1       150 4.00000E+00 1.50000E+00 0.00000E+00
 -1       151 3.50000E+00 1.50000E+00 0.00000E+00
 -1       152 3.00000E+00 1.50000E+00 0.00000E+00
 -1       153 2.50000E+00 1.50000E+00 0.00000E+00
 -1       154 2.00000E+00 1.50000E+00 0.00000E+00
 -1       155 1.50000E+00 1.50000E+00 0.00000E+00
 -1       156 1.00000E+00 1.50000E+00 0.00000E+00
 -1       157 5.00000E-01 1.50000E+00 0.00000E+00
 -1       158 0.00000E+00 1.50000E+00 0.00000E+00
 -1       159-5.00000E-01 1.50000E+00 0.00000E+00
 -1       160-1.00000E+00 1.50000E+00 0.00000E+00
 -1       161-1.50000E+00 1.50000E+00 0.00000E+00
 -1       162-2.00000E+00 1.50000E+00 0.00000E+00
 -1       163-2.50000E+00 1.50000E+00 0.00000E+00
 -1       164-3.00000E+00 1.50000E+00 0.00000E+00
 -1       165-3.50000E+00 1.50000E+00 0.00000E+00
 -1       166-4.00000E+00 1.50000E+00 0.00000E+00
 -1       167-4.50000E+00 1.50000E+00 0.00000E+00
 -1       168-5.00000E+00 1.50000E+00 0.00000E+00
 -1       169 5.00000E+00 1.00000E+00 0.00000E+00
 -1       170 4.50000E+00 1.00000E+00 0.00000E+00
 -1       171 4.00000E+00 1.00000E+00 0.00000E+00
 -1       172 3.50000E+00 1.00000E+00 0.00000E+00
 -1       173 3.00000E+00 1.00000E+00 0.00000E+00
 -1       174 2.50000E+00 1.00000E+00 0.00000E+00
 -1       175 2.00000E+00 1.00000E+00 0.00000E+00
 -1       176 1.50000E+00 1.00000E+00 0.00000E+00
 -1       177 1.00000E+00 1.00000E+00 0.00000E+00
 -1       178 5.00000E-01 1.00000E+00 0.00000E+00
 -1       179 0.00000E+00 1.00000E+00 0.00000E+00
 -1       180-5.00000E-01 1.00000E+00 0.00000E+00
 -1       181-1.00000E+00 1.00000E+00 0.00000E+00
 -1       182-1.50000E+00 1.00000E+00 0.00000E+00
 -1       183-2.00000E+00 1.00000E+00 0.00000E+00
 -1       184-2.50000E+00 1.00000E+00 0.00000E+00
 -1       185-3.00000E+00 1.00000E+00 0.00000E+00
 -1       186-3.50000E+00 1.00000E+00 0.00000E+00
 -1       187-4.00000E+00 1.00000E+00 0.00000E+00
 -1       188-4.50000E+00 1.00000E+00 0.00000E+00
 -1       189-5.00000E+00 1.00000E+00 0.00000E+00
 -1       190 5.00000E+00 5.00000E-01 0.00000E+00
 -1       191 4.50000E+00 5.00000E-01 0.00000E+00
 -1       192 4.00000E+00 5.00000E-01 0.00000E+00
 -1       193 3.50000E+00 5.00000E-01 0.00000E+00
 -1       194 3.00000E+00 5.00000E-01 0.00000E+00
 -1       195 2.50000E+00 5.00000E-01 0.00000E+00
 -1       196 2.00000E+00 5.00000E-01 0.00000E+00
 -1       197 1.50000E+00 5.00000E-01 0.00000E+00
 -1       198 1.00000E+00 5.00000E-01 0.00000E+00
 -1       199 5.00000E-01 5.00000E-01 0.00000E+00
 -1       200 0.00000E+00 5.00000E-01 0.00000E+00
 -1       201-5.00000E-01 5.00000E-01 0.00000E+00
 -1       202-1.00000E+00 5.00000E-01 0.00000E+00
 -1       203-1.50000E+00 5.00000E-01 0.00000E+00
 -1       204-2.00000E+00 5.00000E-01 0.00000E+00
 -1       205-2.50000E+00 5.00000E-01 0.00000E+00
 -1       206-3.00000E+00 5.00000E-01 0.00000E+00
 -1       207-3.50000E+00 5.00000E-01 0.00000E+00
 -1       208-4.00000E+00 5.00000E-01 0.00000E+00
 -1       209-4.50000E+00 5.00000E-01 0.00000E+00
 -1       210-5.00000E+00 5.00000E-01 0.00000E+00
 -1       211 5.00000E+00 0.00000E+00 0.00000E+00
 -1       212 4.50000E+00 0.00000E+00 0.00000E+00
 -1       213 4.00000E+00 0.00000E+00 0.00000E+00
 -1       214 3.50000E+00 0.00000E+00 0.00000E+00
 -1       215 3.00000E+00 0.00000E+00 0.00000E+00
 -1       216 2.50000E+00 0.00000E+00 0.00000E+00
 -1       217 2.00000E+00 0.00000E+00 0.00000E+00
 -1       218 1.50000E+00 0.00000E+00 0.00000E+00
 -1       219 1.00000E+00 0.00000E+00 0.00000E+00
 -1       220 5.00000E-01 0.00000E+00 0.00000E+00
 -1       221 0.00000E+00 0.00000E+00 0.00000E+00
 -1       222-5.00000E-01 0.00000E+00 0.00000E+00
 -1       223-1.00000E+00 0.00000E+00 0.00000E+00
 -1       224-1.50000E+00 0.00000E+00 0.00000E+00
 -1       225-2.00000E+00 0.00000E+00 0.00000E+00
 -1       226-2.50000E+00 0.00000E+00 0.00000E+00
 -1       227-3.00000E+00 0.00000E+00 0.00000E+00
 -1       228-3.50000E+00 0.00000E+00 0.00000E+00
 -1       229-4.00000E+00 0.00000E+00 0.00000E+00
 -1       230-4.50000E+00 0.00000E+00 0.00000E+00
 -1       231-5.00000E+00 0.00000E+00 0.00000E+00
 -1       232 5.00000E+00-5.00000E-01 0.00000E+00
 -1       233 4.50000E+00-5.00000E-01 0.00000E+00
 -1       234 4.00000E+00-5.00000E-01 0.00000E+00
 -1       235 3.50000E+00-5.00000E-01 0.00000E+00
 -1       236 3.00000E+00-5.00000E-01 0.00000E+00
 -1       237 2.50000E+00-5.00000E-01 0.00000E+00
 -1       238 2.00000E+00-5.00000E-01 0.00000E+00
 -1       239 1.50000E+00-5.00000E-01 0.00000E+00
 -1       240 1.00000E+00-5.00000E-01 0.00000E+00
 -1       241 5.00000E-01-5.00000E-01 0.00000E+00
 -1       242 0.00000E+00-5.00000E-01 0.00000E+00
 -1       243-5.00000E-01-5.00000E-01 0.00000E+00
 -1       244-1.00000E+00-5.00000E-01 0.00000E+00
 -1       245-1.50000E+00-5.00000E-01 0.00000E+00
 -1       246-2.00000E+00-5.00000E-01 0.00000E+00
 -1       247-2.50000E+00-5.00000E-01 0.00000E+00
 -1       248-3.00000E+00-5.00000E-01 0.00000E+00
 -1       249-3.50000E+00-5.00000E-01 0.00000E+00
 -1       250-4.00000E+00-5.00000E-01 0.00000E+00
 -1       251-4.50000E+00-5.00000E-01 0.00000E+00
 -1       252-5.00000E+00-5.00000E-01 0.00000E+00
 -1       253 5.00000E+00-1.00000E+00 0.00000E+00
 -1       254 4.50000E+00-1.00000E+00 0.00000E+00
 -1       255 4.00000E+00-1.00000E+00 0.00000E+00
 -1       256 3.50000E+00-1.00000E+00 0.00000E+00
 -1       257 3.00000E+00-1.00000E+00 0.00000E+00
 -1       258 2.50000E+00-1.00000E+00 0.00000E+00
 -1       259 2.00000E+00-1.00000E+00 0.00000E+00
 -1       260 1.50000E+00-1.00000E+00 0.00000E+00
 -1       261 1.00000E+00-1.00000E+00 0.00000E+00
 -1       262 5.00000E-01-1.00000E+00 0.00000E+00
 -1       263 0.00000E+00-1.00000E+00 0.00000E+00
 -1       264-5.00000E-01-1.00000E+00 0.00000E+00
 -1       265-1.00000E+00-1.00000E+00 0.00000E+00
 -1       266-1.50000E+00-1.00000E+00 0.00000E+00
 -1       267-2.00000E+00-1.00000E+00 0.00000E+00
 -1       268-2.50000E+00-1.00000E+00 0.00000E+00
 -1       269-3.00000E+00-1.00000E+00 0.00000E+00
 -1       270-3.50000E+00-1.00000E+00 0.00000E+00
 -1       271-4.00000E+00-1.00000E+00 0.00000E+00
 -1       272-4.50000E+00-1.00000E+00 0.00000E+00
 -1       273-5.00000E+00-1.00000E+00 0.00000E+00
 -1       274 5.00000E+00-1.50000E+00 0.00000E+00
 -1       275 4.50000E+00-1.50000E+00 0.00000E+00
 -1       276 4.00000E+00-1.50000E+00 0.00000E+00
 -1       277 3.50000E+00-1.50000E+00 0.00000E+00
 -1       278 3.00000E+00-1.50000E+00 0.00000E+00
 -1       279 2.50000E+00-1.50000E+00 0.00000E+00
 -1       280 2.00000E+00-1.50000E+00 0.00000E+00
 -1       281 1.50000E+00-1.50000E+00 0.00000E+00
 -1       282 1.00000E+00-1.50000E+00 0.00000E+00
 -1       283 5.00000E-01-1.50000E+00 0.00000E+00
 -1       284 0.00000E+00-1.50000E+00 0.00000E+00
 -1       285-5.00000E-01-1.50000E+00 0.00000E+00
 -1       286-1.00000E+00-1.50000E+00 0.00000E+00
 -1       287-1.50000E+00-1.50000E+00 0.00000E+00
 -1       288-2.00000E+00-1.50000E+00 0.00000E+00
 -1       289-2.50000E+00-1.50000E+00 0.00000E+00
 -1       290-3.00000E+00-1.50000E+00 0.00000E+00
 -1       291-3.50000E+00-1.50000E+00 0.00000E+00
 -1       292-4.00000E+00-1.50000E+00 0.00000E+00
 -1       293-4.50000E+00-1.50000E+00 0.00000E+00
 -1       294-5.00000E+00-1.50000E+00 0.00000E+00
 -1       295 5.00000E+00-2.00000E+00 0.00000E+00
 -1       296 4.50000E+00-2.00000E+00 0.00000E+00
 -1       297 4.00000E+00-2.00000E+00 0.00000E+00
 -1       298 3.50000E+00-2.00000E+00 0.00000E+00
 -1       299 3.00000E+00-2.00000E+00 0.00000E+00
 -1       300 2.50000E+00-2.00000E+00 0.00000E+00
 -1       301 2.00000E+00-2.00000E+00 0.00000E+00
 -1       302 1.50000E+00-2.00000E+00 0.00000E+00
 -1       303 1.00000E+00-2.00000E+00 0.00000E+00
 -1       304 5.00000E-01-2.00000E+00 0.00000E+00
 -1       305 0.00000E+00-2.00000E+00 0.00000E+00
 -1       306-5.00000E-01-2.00000E+00 0.00000E+00
 -1       307-1.00000E+00-2.00000E+00 0.00000E+00
 -1       308-1.50000E+00-2.00000E+00 0.00000E+00
 -1       309-2.00000E+00-2.00000E+00 0.00000E+00
 -1       310-2.50000E+00-2.00000E+00 0.00000E+00
 -1       311-3.00000E+00-2.00000E+00 0.00000E+00
 -1       312-3.50000E+00-2.00000E+00 0.00000E+00
 -1       313-4.00000E+00-2.00000E+00 0.00000E+00
 -1       314-4.50000E+00-2.00000E+00 0.00000E+00
 -1       315-5.00000E+00-2.00000E+00 0.00000E+00
 -1       316 5.00000E+00-2.50000E+00 0.00000E+00
 -1       317 4.50000E+00-2.50000E+00 0.00000E+00
 -1       318 4.00000E+00-2.50000E+00 0.00000E+00
 -1       319 3.50000E+00-2.50000E+00 0.00000E+00
 -1       320 3.00000E+00-2.50000E+00 0.00000E+00
 -1       321 2.50000E+00-2.50000E+00 0.00000E+00
 -1       322 2.00000E+00-2.50000E+00 0.00000E+00
 -1       323 1.50000E+00-2.50000E+00 0.00000E+00
 -1       324 1.00000E+00-2.50000E+00 0.00000E+00
 -1       325 5.00000E-01-2.50000E+00 0.00000E+00
 -1       326 0.00000E+00-2.50000E+00 0.00000E+00
 -1       327-5.00000E-01-2.50000E+00 0.00000E+00
 -1       328-1.00000E+00-2.50000E+00 0.00000E+00
 -1       329-1.50000E+00-2.50000E+00 0.00000E+00
 -1       330-2.00000E+00-2.50000E+00 0.00000E+00
 -1       331-2.50000E+00-2.50000E+00 0.00000E+00
 -1       332-3.00000E+00-2.50000E+00 0.00000E+00
 -1       333-3.50000E+00-2.50000E+00 0.00000E+00
 -1       334-4.00000E+00-2.50000E+00 0.00000E+00
 -1       335-4.50000E+00-2.50000E+00 0.00000E+00
 -1       336-5.00000E+00-2.50000E+00 0.00000E+00
 -1       337 5.00000E+00-3.00000E+00 0.00000E+00
 -1       338 4.50000E+00-3.00000E+00 0.00000E+00
 -1       339 4.00000E+00-3.00000E+00 0.00000E+00
 -1       340 3.50000E+00-3.00000E+00 0.00000E+00
 -1       341 3.00000E+00-3.00000E+00 0.00000E+00
 -1       342 2.50000E+00-3.00000E+00 0.00000E+00
 -1       343 2.00000E+00-3.00000E+00 0.00000E+00
 -1       344 1.50000E+00-3.00000E+00 0.00000E+00
 -1       345 1.00000E+00-3.00000E+00 0.00000E+00
 -1       346 5.00000E-01-3.00000E+00 0.00000E+00
 -1       347 0.00000E+00-3.00000E+00 0.00000E+00
 -1       348-5.00000E-01-3.00000E+00 0.00000E+00
 -1       349-1.00000E+00-3.00000E+00 0.00000E+00
 -1       350-1.50000E+00-3.00000E+00 0.00000E+00
 -1       351-2.00000E+00-3.00000E+00 0.00000E+00
 -1       352-2.50000E+00-3.00000E+00 0.00000E+00
 -1       353-3.00000E+00-3.00000E+00 0.00000E+00
 -1       354-3.50000E+00-3.00000E+00 0.00000E+00
 -1       355-4.00000E+00-3.00000E+00 0.00000E+00
 -1       356-4.50000E+00-3.00000E+00 0.00000E+00
 -1       357-5.00000E+00-3.00000E+00 0.00000E+00
 -1       358 5.00000E+00-3.50000E+00 0.00000E+00
 -1       359 4.50000E+00-3.50000E+00 0.00000E+00
 -1       360 4.00000E+00-3.50000E+00 0.00000E+00
 -1       361 3.50000E+00-3.50000E+00 0.00000E+00
 -1       362 3.00000E+00-3.50000E+00 0.00000E+00
 -1       363 2.50000E+00-3.50000E+00 0.00000E+00
 -1       364 2.00000E+00-3.50000E+00 0.00000E+00
 -1       365 1.50000E+00-3.50000E+00 0.00000E+00
 -1       366 1.00000E+00-3.50000E+00 0.00000E+00
 -1       367 5.00000E-01-3.50000E+00 0.00000E+00
 -1       368 0.00000E+00-3.50000E+00 0.00000E+00
 -1       369-5.00000E-01-3.50000E+00 0.00000E+00
 -1       370-1.00000E+00-3.50000E+00 0.00000E+00
 -1       371-1.50000E+00-3.50000E+00 0.00000E+00
 -1       372-2.00000E+00-3.50000E+00 0.00000E+00
 -1       373-2.50000E+00-3.50000E+00 0.00000E+00
 -1       374-3.00000E+00-3.50000E+00 0.00000E+00
 -1       375-3.50000E+00-3.50000E+00 0.00000E+00
 -1       376-4.00000E+00-3.50000E+00 0.00000E+00
 -1       377-4.50000E+00-3.50000E+00 0.00000E+00
 -1       378-5.00000E+00-3.50000E+00 0.00000E+00
 -1       379 5.00000E+00-4.00000E+00 0.00000E+00
 -1       380 4.50000E+00-4.00000E+00 0.00000E+00
 -1       381 4.00000E+00-4.00000E+00 0.00000E+00
 -1       382 3.50000E+00-4.00000E+00 0.00000E+00
 -1       383 3.00000E+00-4.00000E+00 0.00000E+00
 -1       384 2.50000E+00-4.00000E+00 0.00000E+00
 -1       385 2.00000E+00-4.00000E+00 0.00000E+00
 -1       386 1.50000E+00-4.00000E+00 0.00000E+00
 -1       387 1.00000E+00-4.00000E+00 0.00000E+00
 -1       388 5.00000E-01-4.00000E+00 0.00000E+00
 -1       389 0.00000E+00-4.00000E+00 0.00000E+00
 -1       390-5.00000E-01-4.00000E+00 0.00000E+00
 -1       391-1.00000E+00-4.00000E+00 0.00000E+00
 -1       392-1.50000E+00-4.00000E+00 0.00000E+00
 -1       393-2.00000E+00-4.00000E+00 0.00000E+00
 -1       394-2.50000E+00-4.00000E+00 0.00000E+00
 -1       395-3.00000E+00-4.00000E+00 0.00000E+00
 -1       396-3.50000E+00-4.00000E+00 0.00000E+00
 -1       397-4.00000E+00-4.00000E+00 0.00000E+00
 -1       398-4.50000E+00-4.00000E+00 0.00000E+00
 -1       399-5.00000E+00-4.00000E+00 0.00000E+00
 -1       400 5.00000E+00-4.50000E+00 0.00000E+00
 -1       401 4.50000E+00-4.50000E+00 0.00000E+00
 -1       402 4.00000E+00-4.50000E+00 0.00000E+00
 -1       403 3.50000E+00-4.50000E+00 0.00000E+00
 -1       404 3.00000E+00-4.50000E+00 0.00000E+00
 -1       405 2.50000E+00-4.50000E+00 0.00000E+00
 -1       406 2.00000E+00-4.50000E+00 0.00000E+00
 -1       407 1.50000E+00-4.50000E+00 0.00000E+00
 -1       408 1.00000E+00-4.50000E+00 0.00000E+00
 -1       409 5.00000E-01-4.50000E+00 0.00000E+00
 -1       410 0.00000E+00-4.50000E+00 0.00000E+00
 -1       411-5.00000E-01-4.50000E+00 0.00000E+00
 -1       412-1.00000E+00-4.50000E+00 0.00000E+00
 -1       413-1.50000E+00-4.50000E+00 0.00000E+00
 -1       414-2.00000E+00-4.50000E+00 0.00000E+00
 -1       415-2.50000E+00-4.50000E+00 0.00000E+00
 -1       416-3.00000E+00-4.50000E+00 0.00000E+00
 -1       417-3.50000E+00-4.50000E+00 0.00000E+00
 -1       418-4.00000E+00-4.50000E+00 0.00000E+00
 -1       419-4.50000E+00-4.50000E+00 0.00000E+00
 -1       420-5.00000E+00-4.50000E+00 0.00000E+00
 -1       421 5.00000E+00-5.00000E+00 0.00000E+00
 -1       422 4.50000E+00-5.00000E+00 0.00000E+00
 -1       423 4.00000E+00-5.00000E+00 0.00000E+00
 -1       424 3.50000E+00-5.00000E+00 0.00000E+00
 -1       425 3.00000E+00-5.00000E+00 0.00000E+00
 -1       426 2.50000E+00-5.00000E+00 0.00000E+00
 -1       427 2.00000E+00-5.00000E+00 0.00000E+00
 -1       428 1.50000E+00-5.00000E+00 0.00000E+00
 -1       429 1.00000E+00-5.00000E+00 0.00000E+00
 -1       430 5.00000E-01-5.00000E+00 0.00000E+00
 -1       431 0.00000E+00-5.00000E+00 0.00000E+00
 -1       432-5.00000E-01-5.00000E+00 0.00000E+00
 -1       433-1.00000E+00-5.00000E+00 0.00000E+00
 -1       434-1.50000E+00-5.00000E+00 0.00000E+00
 -1       435-2.00000E+00-5.00000E+00 0.00000E+00
 -1       436-2.50000E+00-5.00000E+00 0.00000E+00
 -1       437-3.00000E+00-5.00000E+00 0.00000E+00
 -1       438-3.50000E+00-5.00000E+00 0.00000E+00
 -1       439-4.00000E+00-5.00000E+00 0.00000E+00
 -1       440-4.50000E+00-5.00000E+00 0.00000E+00
 -1       441-5.00000E+00-5.00000E+00 0.00000E+00
 -3
    3C                           800                                     1
 -1         1    7    0    1
 -2         1         2        23
 -1         2    7    0    1
 -2        23        22         1
 -1         3    7    0    1
 -2         2         3        24
 -1         4    7    0    1
 -2        24        23         2
 -1         5    7    0    1
 -2         3         4        25
 -1         6    7    0    1
 -2        25        24         3
 -1         7    7    0    1
 -2         4         5        26
 -1         8    7    0    1
 -2        26        25         4
 -1         9    7    0    1
 -2         5         6        27
 -1        10    7    0    1
 -2        27        26         5
 -1        11    7    0    1
 -2         6         7        28
 -1        12    7    0    1
 -2        28        27         6
 -1        13    7    0    1
 -2         7         8        29
 -1        14    7    0    1
 -2        29        28         7
 -1        15    7    0    1
 -2         8         9        30
 -1        16    7    0    1
 -2        30        29         8
 -1        17    7    0    1
 -2         9        10        31
 -1        18    7    0    1
 -2        31        30         9
 -1        19    7    0    1
 -2        10        11        32
 -1        20    7    0    1
 -2        32        31        10
 -1        21    7    0    1
 -2        11        12        33
 -1        22    7    0    1
 -2        33        32        11
 -1        23    7    0    1
 -2        12        13        34
 -1        24    7    0    1
 -2        34        33        12
 -1        25    7    0    1
 -2        13        14        35
 -1        26    7    0    1
 -2        35        34        13
 -1        27    7    0    1
 -2        14        15        36
 -1        28    7    0    1
 -2        36        35        14
 -1        29    7    0    1
 -2        15        16        37
 -1        30    7    0    1
 -2        37        36        15
 -1        31    7    0    1
 -2        16        17        38
 -1        32    7    0    1
 -2        38        37        16
 -1        33    7    0    1
 -2        17        18        39
 -1        34    7    0    1
 -2        39        38        17
 -1        35    7    0    1
 -2        18        19        40
 -1        36    7    0    1
 -2        40        39        18
 -1        37    7    0    1
 -2        19        20        41
 -1        38    7    0    1
 -2        41        40        19
 -1        39    7    0    1
 -2        20        21        42
 -1        40    7    0    1
 -2        42        41        20
 -1        41    7    0    1
 -2        22        23        44
 -1        42    7    0    1
 -2        44        43        22
 -1        43    7    0    1
 -2        23        24        45
 -1        44    7    0    1
 -2        45        44        23
 -1        45    7    0    1
 -2        24        25        46
 -1        46    7    0    1
 -2        46        45        24
 -1        47    7    0    1
 -2        25        26        47
 -1        48    7    0    1
 -2        47        46        25
 -1        49    7    0    1
 -2        26        27        48
 -1        50    7    0    1
 -2        48        47        26
 -1        51    7    0    1
 -2        27        28        49
 -1        52    7    0    1
 -2        49        48        27
 -1        53    7    0    1
 -2        28        29        50
 -1        54    7    0    1
 -2        50        49        28
 -1        55    7    0    1
 -2        29        30        51
 -1        56    7    0    1
 -2        51        50        29
 -1        57    7    0    1
 -2        30        31        52
 -1        58    7    0    1
 -2        52        51        30
 -1        59    7    0    1
 -2        31        32        53
 -1        60    7    0    1
 -2        53        52        31
 -1        61    7    0    1
 -2        32        33        54
 -1        62    7    0    1
 -2        54        53        32
 -1        63    7    0    1
 -2        33        34        55
 -1        64    7    0    1
 -2        55        54        33
 -1        65    7    0    1
 -2        34        35        56
 -1        66    7    0    1
 -2        56        55        34
 -1        67    7    0    1
 -2        35        36        57
 -1        68    7    0    1
 -2        57        56        35
 -1        69    7    0    1
 -2        36        37        58
 -1        70    7    0    1
 -2        58        57        36
 -1        71    7    0    1
 -2        37        38        59
 -1        72    7    0    1
 -2        59        58        37
 -1        73    7    0    1
 -2        38        39        60
 -1        74    7    0    1
 -2        60        59        38
 -1        75    7    0    1
 -2        39        40        61
 -1        76    7    0    1
 -2        61        60        39
 -1        77    7    0    1
 -2        40        41        62
 -1        78    7    0    1
 -2        62        61        40
 -1        79    7    0    1
 -2        41        42        63
 -1        80    7    0    1
 -2        63        62        41
 -1        81    7    0    1
 -2        43        44        65
 -1        82    7    0    1
 -2        65        64        43
 -1        83    7    0    1
 -2        44        45        66
 -1        84    7    0    1
 -2        66        65        44
 -1        85    7    0    1
 -2        45        46        67
 -1        86    7    0    1
 -2        67        66        45
 -1        87    7    0    1
 -2        46        47        68
 -1        88    7    0    1
 -2        68        67        46
 -1        89    7    0    1
 -2        47        48        69
 -1        90    7    0    1
 -2        69        68        47
 -1        91    7    0    1
 -2        48        49        70
 -1        92    7    0    1
 -2        70        69        48
 -1        93    7    0    1
 -2        49        50        71
 -1        94    7    0    1
 -2        71        70        49
 -1        95    7    0    1
 -2        50        51        72
 -1        96    7    0    1
 -2        72        71        50
 -1        97    7    0    1
 -2        51        52        73
 -1        98    7    0    1
 -2        73        72        51
 -1        99    7    0    1
 -2        52        53        74
 -1       100    7    0    1
 -2        74        73        52
 -1       101    7    0    1
 -2        53        54        75
 -1       102    7    0    1
 -2        75        74        53
 -1       103    7    0    1
 -2        54        55        76
 -1       104    7    0    1
 -2        76        75        54
 -1       105    7    0    1
 -2        55        56        77
 -1       106    7    0    1
 -2        77        76        55
 -1       107    7    0    1
 -2        56        57        78
 -1       108    7    0    1
 -2        78        77        56
 -1       109    7    0    1
 -2        57        58        79
 -1       110    7    0    1
 -2        79        78        57
 -1       111    7    0    1
 -2        58        59        80
 -1       112    7    0    1
 -2        80        79        58