    1C
    1UUSER                                                              
    1UDATE              28.july.2022                                    
    1UTIME              20:02:55                                        
    1UHOST                                                              
    1UPGM               CalculiX                                        
    1UVERSION           Version DEVELOPMENT                             
    1UCOMPILETIME       Thu Jul 28 20:01:21 CEST 2022                    
    1UDIR                                                               
    1UDBN                                                               
    1UMAT    1MATERIAL-1                                                
    2C                           245                                     1
 -1         1 0.00000E+00-5.50000E-01 1.20000E+01
 -1         2 0.00000E+00 0.00000E+00 1.20000E+01
 -1         3 0.00000E+00 0.00000E+00 0.00000E+00
 -1         4-5.50000E-01 0.00000E+00 0.00000E+00
 -1         5 0.00000E+00 5.50000E-01 1.20000E+01
 -1         6 5.50000E-01 0.00000E+00 0.00000E+00
 -1         7 0.00000E+00-2.75000E-01 1.20000E+01
 -1         8 0.00000E+00 0.00000E+00 1.17500E+01
 -1         9 0.00000E+00 0.00000E+00 1.15000E+01
 -1        10 0.00000E+00 0.00000E+00 1.12500E+01
 -1        11 0.00000E+00 0.00000E+00 1.10000E+01
 -1        12 0.00000E+00 0.00000E+00 1.07500E+01
 -1        13 0.00000E+00 0.00000E+00 1.05000E+01
 -1        14 0.00000E+00 0.00000E+00 1.02500E+01
 -1        15 0.00000E+00 0.00000E+00 1.00000E+01
 -1        16 0.00000E+00 0.00000E+00 9.75000E+00
 -1        17 0.00000E+00 0.00000E+00 9.50000E+00
 -1        18 0.00000E+00 0.00000E+00 9.25000E+00
 -1        19 0.00000E+00 0.00000E+00 9.00000E+00
 -1        20 0.00000E+00 0.00000E+00 8.75000E+00
 -1        21 0.00000E+00 0.00000E+00 8.50000E+00
 -1        22 0.00000E+00 0.00000E+00 8.25000E+00
 -1        23 0.00000E+00 0.00000E+00 8.00000E+00
 -1        24 0.00000E+00 0.00000E+00 7.75000E+00
 -1        25 0.00000E+00 0.00000E+00 7.50000E+00
 -1        26 0.00000E+00 0.00000E+00 7.25000E+00
 -1        27 0.00000E+00 0.00000E+00 7.00000E+00
 -1        28 0.00000E+00 0.00000E+00 6.75000E+00
 -1        29 0.00000E+00 0.00000E+00 6.50000E+00
 -1        30 0.00000E+00 0.00000E+00 6.25000E+00
 -1        31 0.00000E+00 0.00000E+00 6.00000E+00
 -1        32 0.00000E+00 0.00000E+00 5.75000E+00
 -1        33 0.00000E+00 0.00000E+00 5.50000E+00
 -1        34 0.00000E+00 0.00000E+00 5.25000E+00
 -1        35 0.00000E+00 0.00000E+00 5.00000E+00
 -1        36 0.00000E+00 0.00000E+00 4.75000E+00
 -1        37 0.00000E+00 0.00000E+00 4.50000E+00
 -1        38 0.00000E+00 0.00000E+00 4.25000E+00
 -1        39 0.00000E+00 0.00000E+00 4.00000E+00
 -1        40 0.00000E+00 0.00000E+00 3.75000E+00
 -1        41 0.00000E+00 0.00000E+00 3.50000E+00
 -1        42 0.00000E+00 0.00000E+00 3.25000E+00
 -1        43 0.00000E+00 0.00000E+00 3.00000E+00
 -1        44 0.00000E+00 0.00000E+00 2.75000E+00
 -1        45 0.00000E+00 0.00000E+00 2.50000E+00
 -1        46 0.00000E+00 0.00000E+00 2.25000E+00
 -1        47 0.00000E+00 0.00000E+00 2.00000E+00
 -1        48 0.00000E+00 0.00000E+00 1.75000E+00
 -1        49 0.00000E+00 0.00000E+00 1.50000E+00
 -1        50 0.00000E+00 0.00000E+00 1.25000E+00
 -1        51 0.00000E+00 0.00000E+00 1.00000E+00
 -1        52 0.00000E+00 0.00000E+00 7.50000E-01
 -1        53 0.00000E+00 0.00000E+00 5.00000E-01
 -1        54 0.00000E+00 0.00000E+00 2.50000E-01
 -1        55-2.75000E-01 0.00000E+00 0.00000E+00
 -1        56-5.49706E-01-1.79955E-02 2.50000E-01
 -1        57-5.48822E-01-3.59717E-02 5.00000E-01
 -1        58-5.47352E-01-5.39095E-02 7.50001E-01
 -1        59-5.45295E-01-7.17895E-02 1.00000E+00
 -1        60-5.42654E-01-8.95926E-02 1.25000E+00
 -1        61-5.39432E-01-1.07300E-01 1.50000E+00
 -1        62-5.35632E-01-1.24892E-01 1.75000E+00
 -1        63-5.31259E-01-1.42350E-01 2.00000E+00
 -1        64-5.26317E-01-1.59657E-01 2.25000E+00
 -1        65-5.20812E-01-1.76792E-01 2.50000E+00
 -1        66-5.14748E-01-1.93737E-01 2.75000E+00
 -1        67-5.08134E-01-2.10476E-01 3.00000E+00
 -1        68-5.00975E-01-2.26989E-01 3.25000E+00
 -1        69-4.93280E-01-2.43259E-01 3.50000E+00
 -1        70-4.85057E-01-2.59268E-01 3.75000E+00
 -1        71-4.76314E-01-2.75000E-01 4.00000E+00
 -1        72-4.67061E-01-2.90437E-01 4.25000E+00
 -1        73-4.57308E-01-3.05564E-01 4.50000E+00
 -1        74-4.47065E-01-3.20363E-01 4.75000E+00
 -1        75-4.36344E-01-3.34819E-01 5.00001E+00
 -1        76-4.25155E-01-3.48917E-01 5.25001E+00
 -1        77-4.13512E-01-3.62641E-01 5.50001E+00
 -1        78-4.01425E-01-3.75976E-01 5.75001E+00
 -1        79-3.88908E-01-3.88909E-01 6.00001E+00
 -1        80-3.75975E-01-4.01426E-01 6.25001E+00
 -1        81-3.62640E-01-4.13512E-01 6.50001E+00
 -1        82-3.48916E-01-4.25156E-01 6.75001E+00
 -1        83-3.34818E-01-4.36345E-01 7.00001E+00
 -1        84-3.20362E-01-4.47066E-01 7.25001E+00
 -1        85-3.05563E-01-4.57309E-01 7.50001E+00
 -1        86-2.90437E-01-4.67061E-01 7.75000E+00
 -1        87-2.75000E-01-4.76314E-01 8.00000E+00
 -1        88-2.59268E-01-4.85057E-01 8.25000E+00
 -1        89-2.43259E-01-4.93280E-01 8.50000E+00
 -1        90-2.26989E-01-5.00975E-01 8.75000E+00
 -1        91-2.10476E-01-5.08134E-01 9.00000E+00
 -1        92-1.93737E-01-5.14748E-01 9.25000E+00
 -1        93-1.76791E-01-5.20812E-01 9.50000E+00
 -1        94-1.59656E-01-5.26317E-01 9.75000E+00
 -1        95-1.42350E-01-5.31259E-01 1.00000E+01
 -1        96-1.24892E-01-5.35632E-01 1.02500E+01
 -1        97-1.07300E-01-5.39432E-01 1.05000E+01
 -1        98-8.95925E-02-5.42654E-01 1.07500E+01
 -1        99-7.17895E-02-5.45295E-01 1.10000E+01
 -1       100-5.39096E-02-5.47352E-01 1.12500E+01
 -1       101-3.59719E-02-5.48822E-01 1.15000E+01
 -1       102-1.79957E-02-5.49706E-01 1.17500E+01
 -1       103 0.00000E+00 2.75000E-01 1.20000E+01
 -1       104 1.79955E-02 5.49706E-01 1.17500E+01
 -1       105 3.59717E-02 5.48822E-01 1.15000E+01
 -1       106 5.39094E-02 5.47352E-01 1.12500E+01
 -1       107 7.17893E-02 5.45295E-01 1.10000E+01
 -1       108 8.95925E-02 5.42654E-01 1.07500E+01
 -1       109 1.07300E-01 5.39432E-01 1.05000E+01
 -1       110 1.24892E-01 5.35632E-01 1.02500E+01
 -1       111 1.42350E-01 5.31259E-01 1.00000E+01
 -1       112 1.59656E-01 5.26317E-01 9.75000E+00
 -1       113 1.76792E-01 5.20812E-01 9.50000E+00
 -1       114 1.93738E-01 5.14748E-01 9.25000E+00
 -1       115 2.10476E-01 5.08134E-01 9.00000E+00
 -1       116 2.26989E-01 5.00975E-01 8.75000E+00
 -1       117 2.43259E-01 4.93280E-01 8.50000E+00
 -1       118 2.59268E-01 4.85057E-01 8.25000E+00
 -1       119 2.75000E-01 4.76314E-01 8.00000E+00
 -1       120 2.90437E-01 4.67061E-01 7.75000E+00
 -1       121 3.05564E-01 4.57308E-01 7.50000E+00
 -1       122 3.20363E-01 4.47066E-01 7.25000E+00
 -1       123 3.34819E-01 4.36344E-01 7.00000E+00
 -1       124 3.48916E-01 4.25156E-01 6.75000E+00
 -1       125 3.62640E-01 4.13512E-01 6.50000E+00
 -1       126 3.75976E-01 4.01425E-01 6.25000E+00
 -1       127 3.88909E-01 3.88909E-01 6.00000E+00
 -1       128 4.01425E-01 3.75976E-01 5.75000E+00
 -1       129 4.13512E-01 3.62640E-01 5.50000E+00
 -1       130 4.25156E-01 3.48916E-01 5.25000E+00
 -1       131 4.36344E-01 3.34819E-01 5.00000E+00
 -1       132 4.47066E-01 3.20363E-01 4.75000E+00
 -1       133 4.57308E-01 3.05563E-01 4.50000E+00
 -1       134 4.67061E-01 2.90437E-01 4.24999E+00
 -1       135 4.76314E-01 2.75000E-01 3.99999E+00
 -1       136 4.85057E-01 2.59268E-01 3.74999E+00
 -1       137 4.93280E-01 2.43258E-01 3.49999E+00
 -1       138 5.00975E-01 2.26988E-01 3.24999E+00
 -1       139 5.08134E-01 2.10475E-01 2.99999E+00
 -1       140 5.14748E-01 1.93737E-01 2.74999E+00
 -1       141 5.20812E-01 1.76791E-01 2.49999E+00
 -1       142 5.26317E-01 1.59656E-01 2.24999E+00
 -1       143 5.31259E-01 1.42350E-01 1.99999E+00
 -1       144 5.35632E-01 1.24891E-01 1.74999E+00
 -1       145 5.39432E-01 1.07299E-01 1.49999E+00
 -1       146 5.42654E-01 8.95921E-02 1.24999E+00
 -1       147 5.45295E-01 7.17891E-02 9.99995E-01
 -1       148 5.47352E-01 5.39091E-02 7.49996E-01
 -1       149 5.48822E-01 3.59715E-02 4.99997E-01
 -1       150 5.49706E-01 1.79953E-02 2.49997E-01
 -1       151 2.75000E-01 0.00000E+00 0.00000E+00
 -1       152-8.99778E-03-2.74853E-01 1.17500E+01
 -1       153-1.79859E-02-2.74411E-01 1.15000E+01
 -1       154-2.69547E-02-2.73676E-01 1.12500E+01
 -1       155-3.58947E-02-2.72647E-01 1.10000E+01
 -1       156-4.47963E-02-2.71327E-01 1.07500E+01
 -1       157-5.36498E-02-2.69716E-01 1.05000E+01
 -1       158-6.24459E-02-2.67816E-01 1.02500E+01
 -1       159-7.11752E-02-2.65630E-01 1.00000E+01
 -1       160-7.98282E-02-2.63159E-01 9.75000E+00
 -1       161-8.83958E-02-2.60406E-01 9.50000E+00
 -1       162-9.68687E-02-2.57374E-01 9.25000E+00
 -1       163-1.05238E-01-2.54067E-01 9.00000E+00
 -1       164-1.13494E-01-2.50488E-01 8.75000E+00
 -1       165-1.21629E-01-2.46640E-01 8.50000E+00
 -1       166-1.29634E-01-2.42528E-01 8.25000E+00
 -1       167-1.37500E-01-2.38157E-01 8.00000E+00
 -1       168-1.45219E-01-2.33531E-01 7.75000E+00
 -1       169-1.52782E-01-2.28654E-01 7.50000E+00
 -1       170-1.60181E-01-2.23533E-01 7.25000E+00
 -1       171-1.67409E-01-2.18172E-01 7.00000E+00
 -1       172-1.74458E-01-2.12578E-01 6.75000E+00
 -1       173-1.81320E-01-2.06756E-01 6.50000E+00
 -1       174-1.87988E-01-2.00713E-01 6.25000E+00
 -1       175-1.94454E-01-1.94454E-01 6.00000E+00
 -1       176-2.00713E-01-1.87988E-01 5.75000E+00
 -1       177-2.06756E-01-1.81320E-01 5.50000E+00
 -1       178-2.12578E-01-1.74458E-01 5.25000E+00
 -1       179-2.18172E-01-1.67409E-01 5.00000E+00
 -1       180-2.23533E-01-1.60181E-01 4.75000E+00
 -1       181-2.28654E-01-1.52782E-01 4.50000E+00
 -1       182-2.33531E-01-1.45219E-01 4.25000E+00
 -1       183-2.38157E-01-1.37500E-01 4.00000E+00
 -1       184-2.42528E-01-1.29634E-01 3.75000E+00
 -1       185-2.46640E-01-1.21629E-01 3.50000E+00
 -1       186-2.50488E-01-1.13494E-01 3.25000E+00
 -1       187-2.54067E-01-1.05238E-01 3.00000E+00
 -1       188-2.57374E-01-9.68687E-02 2.75000E+00
 -1       189-2.60406E-01-8.83958E-02 2.50000E+00
 -1       190-2.63159E-01-7.98283E-02 2.25000E+00
 -1       191-2.65630E-01-7.11752E-02 2.00000E+00
 -1       192-2.67816E-01-6.24460E-02 1.75000E+00
 -1       193-2.69716E-01-5.36499E-02 1.50000E+00
 -1       194-2.71327E-01-4.47963E-02 1.25000E+00
 -1       195-2.72647E-01-3.58947E-02 1.00000E+00
 -1       196-2.73676E-01-2.69547E-02 7.50000E-01
 -1       197-2.74411E-01-1.79859E-02 5.00000E-01
 -1       198-2.74853E-01-8.99775E-03 2.50000E-01
 -1       199 8.99775E-03 2.74853E-01 1.17500E+01
 -1       200 1.79859E-02 2.74411E-01 1.15000E+01
 -1       201 2.69547E-02 2.73676E-01 1.12500E+01
 -1       202 3.58947E-02 2.72647E-01 1.10000E+01
 -1       203 4.47963E-02 2.71327E-01 1.07500E+01
 -1       204 5.36498E-02 2.69716E-01 1.05000E+01
 -1       205 6.24460E-02 2.67816E-01 1.02500E+01
 -1       206 7.11752E-02 2.65630E-01 1.00000E+01
 -1       207 7.98283E-02 2.63159E-01 9.75000E+00
 -1       208 8.83958E-02 2.60406E-01 9.50000E+00
 -1       209 9.68688E-02 2.57374E-01 9.25000E+00
 -1       210 1.05238E-01 2.54067E-01 9.00000E+00
 -1       211 1.13494E-01 2.50488E-01 8.75000E+00
 -1       212 1.21629E-01 2.46640E-01 8.50000E+00
 -1       213 1.29634E-01 2.42528E-01 8.25000E+00
 -1       214 1.37500E-01 2.38157E-01 8.00000E+00
 -1       215 1.45219E-01 2.33531E-01 7.75000E+00
 -1       216 1.52782E-01 2.28654E-01 7.50000E+00
 -1       217 1.60181E-01 2.23533E-01 7.25000E+00
 -1       218 1.67409E-01 2.18172E-01 7.00000E+00
 -1       219 1.74458E-01 2.12578E-01 6.75000E+00
 -1       220 1.81320E-01 2.06756E-01 6.50000E+00
 -1       221 1.87988E-01 2.00713E-01 6.25000E+00
 -1       222 1.94454E-01 1.94454E-01 6.00000E+00
 -1       223 2.00713E-01 1.87988E-01 5.75000E+00
 -1       224 2.06756E-01 1.81320E-01 5.50000E+00
 -1       225 2.12578E-01 1.74458E-01 5.25000E+00
 -1       226 2.18172E-01 1.67409E-01 5.00000E+00
 -1       227 2.23533E-01 1.60181E-01 4.75000E+00
 -1       228 2.28654E-01 1.52782E-01 4.50000E+00
 -1       229 2.33531E-01 1.45219E-01 4.25000E+00
 -1       230 2.38157E-01 1.37500E-01 4.00000E+00
 -1       231 2.42528E-01 1.29634E-01 3.75000E+00
 -1       232 2.46640E-01 1.21629E-01 3.50000E+00
 -1       233 2.50488E-01 1.13494E-01 3.25000E+00
 -1       234 2.54067E-01 1.05238E-01 3.00000E+00
 -1       235 2.57374E-01 9.68686E-02 2.75000E+00
 -1       236 2.60406E-01 8.83957E-02 2.50000E+00
 -1       237 2.63159E-01 7.98282E-02 2.25000E+00
 -1       238 2.65630E-01 7.11751E-02 2.00000E+00
 -1       239 2.67816E-01 6.24458E-02 1.75000E+00
 -1       240 2.69716E-01 5.36497E-02 1.50000E+00
 -1       241 2.71327E-01 4.47962E-02 1.25000E+00
 -1       242 2.72647E-01 3.58946E-02 9.99998E-01
 -1       243 2.73676E-01 2.69546E-02 7.49998E-01
 -1       244 2.74411E-01 1.79858E-02 4.99998E-01
 -1       245 2.74853E-01 8.99769E-03 2.49999E-01
 -3
    3C                           384                                     1
 -1         1    7    0    1
 -2         1         7       102
 -1         2    7    0    1
 -2         7       152       102
 -1         3    7    0    1
 -2         7         2       152
 -1         4    7    0    1
 -2         2         8       152
 -1         5    7    0    1
 -2       102       152       101
 -1         6    7    0    1
 -2       152       153       101
 -1         7    7    0    1
 -2       152         8       153
 -1         8    7    0    1
 -2         8         9       153
 -1         9    7    0    1
 -2       101       153       100
 -1        10    7    0    1
 -2       153       154       100
 -1        11    7    0    1
 -2       153         9       154
 -1        12    7    0    1
 -2         9        10       154
 -1        13    7    0    1
 -2       100       154        99
 -1        14    7    0    1
 -2       154       155        99
 -1        15    7    0    1
 -2       154        10       155
 -1        16    7    0    1
 -2        10        11       155
 -1        17    7    0    1
 -2        99       155        98
 -1        18    7    0    1
 -2       155       156        98
 -1        19    7    0    1
 -2       155        11       156
 -1        20    7    0    1
 -2        11        12       156
 -1        21    7    0    1
 -2        98       156        97
 -1        22    7    0    1
 -2       156       157        97
 -1        23    7    0    1
 -2       156        12       157
 -1        24    7    0    1
 -2        12        13       157
 -1        25    7    0    1
 -2        97       157        96
 -1        26    7    0    1
 -2       157       158        96
 -1        27    7    0    1
 -2       157        13       158
 -1        28    7    0    1
 -2        13        14       158
 -1        29    7    0    1
 -2        96       158        95
 -1        30    7    0    1
 -2       158       159        95
 -1        31    7    0    1
 -2       158        14       159
 -1        32    7    0    1
 -2        14        15       159
 -1        33    7    0    1
 -2        95       159        94
 -1        34    7    0    1
 -2       159       160        94
 -1        35    7    0    1
 -2       159        15       160
 -1        36    7    0    1
 -2        15        16       160
 -1        37    7    0    1
 -2        94       160        93
 -1        38    7    0    1
 -2       160       161        93
 -1        39    7    0    1
 -2       160        16       161
 -1        40    7    0    1
 -2        16        17       161
 -1        41    7    0    1
 -2        93       161        92
 -1        42    7    0    1
 -2       161       162        92
 -1        43    7    0    1
 -2       161        17       162
 -1        44    7    0    1
 -2        17        18       162
 -1        45    7    0    1
 -2        92       162        91
 -1        46    7    0    1
 -2       162       163        91
 -1        47    7    0    1
 -2       162        18       163
 -1        48    7    0    1
 -2        18        19       163
 -1        49    7    0    1
 -2        91       163        90
 -1        50    7    0    1
 -2       163       164        90
 -1        51    7    0    1
 -2       163        19       164
 -1        52    7    0    1
 -2        19        20       164
 -1        53    7    0    1
 -2        90       164        89
 -1        54    7    0    1
 -2       164       165        89
 -1        55    7    0    1
 -2       164        20       165
 -1        56    7    0    1
 -2        20        21       165
 -1        57    7    0    1
 -2        89       165        88
 -1        58    7    0    1
 -2       165       166        88
 -1        59    7    0    1
 -2       165        21       166
 -1        60    7    0    1
 -2        21        22       166
 -1        61    7    0    1
 -2        88       166        87
 -1        62    7    0    1
 -2       166       167        87
 -1        63    7    0    1
 -2       166        22       167
 -1        64    7    0    1
 -2        22        23       167
 -1        65    7    0    1
 -2        87       167        86
 -1        66    7    0    1
 -2       167       168        86
 -1        67    7    0    1
 -2       167        23       168
 -1        68    7    0    1
 -2        23        24       168
 -1        69    7    0    1
 -2        86       168        85
 -1        70    7    0    1
 -2       168       169        85
 -1        71    7    0    1
 -2       168        24       169
 -1        72    7    0    1
 -2        24        25       169
 -1        73    7    0    1
 -2        85       169        84
 -1        74    7    0    1
 -2       169       170        84
 -1        75    7    0    1
 -2       169        25       170
 -1        76    7    0    1
 -2        25        26       170
 -1        77    7    0    1
 -2        84       170        83
 -1        78    7    0    1
 -2       170       171        83
 -1        79    7    0    1
 -2       170        26       171
 -1        80    7    0    1
 -2        26        27       171
 -1        81    7    0    1
 -2        83       171        82
 -1        82    7    0    1
 -2       171       172        82
 -1        83    7    0    1
 -2       171        27       172
 -1        84    7    0    1
 -2        27        28       172
 -1        85    7    0    1
 -2        82       172        81
 -1        86    7    0    1
 -2       172       173        81
 -1        87    7    0    1
 -2       172        28       173
 -1        88    7    0    1
 -2        28        29       173
 -1        89    7    0    1
 -2        81       173        80
 -1        90    7    0    1
 -2       173       174        80
 -1        91    7    0    1
 -2       173        29       174
 -1        92    7    0    1
 -2        29        30       174
 -1        93    7    0    1
 -2        80       174        79
 -1        94    7    0    1
 -2       174       175        79
 -1        95    7    0    1
 -2       174        30       175
 -1        96    7    0    1
 -2        30        31       175
 -1        97    7    0    1
 -2        79       175        78
 -1        98    7    0    1
 -2       175       176        78
 -1        99    7    0    1
 -2       175        31       176
 -1       100    7    0    1
 -2        31        32       176
 -1       101    7    0    1
 -2        78       176        77
 -1       102    7    0    1
 -2       176       177        77
 -1       103    7    0    1
 -2       176        32       177
 -1       104    7    0    1
 -2        32        33       177
 -1       105    7    0    1
 -2        77       177        76
 -1       106    7    0    1
 -2       177       178        76
 -1       107    7    0    1
 -2       177        33       178
 -1       108    7    0    1
 -2        33        34       178
 -1       109    7    0    1
 -2        76       178        75
 -1       110    7    0    1
 -2       178       179        75
 -1       111    7    0    1
 -2       178        34       179
 -1       112    7    0    1
 -2        34        35       179
 -1       113    7    0    1
 -2        75       179        74
 -1       114    7    0    1
 -2       179       180        74
 -1       115    7    0    1
 -2       179        35       180
 -1       116    7    0    1
 -2        35        36       180
 -1       117    7    0    1
 -2        74       180        73
 -1       118    7    0    1
 -2       180       181        73
 -1       119    7    0    1
 -2       180        36       181
 -1       120    7    0    1
 -2        36        37       181
 -1       121    7    0    1
 -2        73       181        72
 -1       122    7    0    1
 -2       181       182        72
 -1       123    7    0    1
 -2       181        37       182
 -1       124    7    0    1
 -2        37        38       182
 -1       125    7    0    1
 -2        72       182        71
 -1       126    7    0    1
 -2       182       183        71
 -1       127    7    0    1
 -2       182        38       183
 -1       128    7    0    1
 -2        38        39       183
 -1       129    7    0    1
 -2        71       183        70
 -1       130    7    0    1
 -2       183       184        70
 -1       131    7    0    1
 -2       183        39       184
 -1       132    7    0    1
 -2        39        40       184
 -1       133    7    0    1
 -2        70       184        69
 -1       134    7    0    1
 -2       184       185        69
 -1       135    7    0    1
 -2       184        40       185
 -1       136    7    0    1
 -2        40        41       185
 -1       137    7    0    1
 -2        69       185        68
 -1       138    7    0    1
 -2       185       186        68
 -1       139    7    0    1
 -2       185        41       186
 -1       140    7    0    1
 -2        41        42       186
 -1       141    7    0    1
 -2        68       186        67
 -1       142    7    0    1
 -2       186       187        67
 -1       143    7    0    1
 -2       186        42       187
 -1       144    7    0    1
 -2        42        43       187
 -1       145    7    0    1
 -2        67       187        66
 -1       146    7    0    1
 -2       187       188        66
 -1       147    7    0    1
 -2       187        43       188
 -1       148    7    0    1
 -2        43        44       188
 -1       149    7    0    1
 -2        66       188        65
 -1       150    7    0    1
 -2       188       189        65
 -1       151    7    0    1
 -2       188        44       189
 -1       152    7    0    1
 -2        44        45       189
 -1       153    7    0    1
 -2        65       189        64
 -1       154    7    0    1
 -2       189       190        64
 -1       155    7    0    1
 -2       189        45       190
 -1       156    7    0    1
 -2        45        46       190
 -1       157    7    0    1
 -2        64       190        63
 -1       158    7    0    1
 -2       190       191        63
 -1       159    7    0    1
 -2       190        46       191
 -1       160    7    0    1
 -2        46        47       191
 -1       161    7    0    1
 -2        63       191        62
 -1       162    7    0    1
 -2       191       192        62
 -1       163    7    0    1
 -2       191        47       192
 -1       164    7    0    1
 -2        47        48       192
 -1       165    7    0    1
 -2        62       192        61
 -1       166    7    0    1
 -2       192       193        61
 -1       167    7    0    1
 -2       192        48       193
 -1       168    7    0    1
 -2        48        49       193
 -1       169    7    0    1
 -2        61       193        60
 -1       170    7    0    1
 -2       193       194        60
 -1       171    7    0    1
 -2       193        49       194
 -1       172    7    0    1
 -2        49        50       194
 -1       173    7    0    1
 -2        60       194        59
 -1       174    7    0    1
 -2       194       195        59
 -1       175    7    0    1
 -2       194        50       195
 -1       176    7    0    1
 -2        50        51       195
 -1       177    7    0    1
 -2        59       195        58
 -1       178    7    0    1
 -2       195       196        58
 -1       179    7    0    1
 -2       195        51       196
 -1       180    7    0    1
 -2        51        52       196
 -1       181    7    0    1
 -2        58       196        57
 -1       182    7    0    1
 -2       196       197        57
 -1       183    7    0    1
 -2       196        52       197
 -1       184    7    0    1
 -2        52        53       197
 -1       185    7    0    1
 -2        57       197        56
 -1       186    7    0    1
 -2       197       198        56
 -1       187    7    0    1
 -2       197        53       198
 -1       188    7    0    1
 -2        53        54       198
 -1       189    7    0    1
 -2        56       198         4
 -1       190    7    0    1
 -2       198        55         4
 -1       191    7    0    1
 -2       198        54        55
 -1       192    7    0    1
 -2        54         3        55
 -1       193    7    0    1
 -2         2       103         8
 -1       194    7    0    1
 -2       103       199         8
 -1       195    7    0    1
 -2       103         5       199
 -1       196    7    0    1
 -2         5       104       199
 -1       197    7    0    1
 -2         8       199         9
 -1       198    7    0    1
 -2       199       200         9
 -1       199    7    0    1
 -2       199       104       200
 -1       200    7    0    1
 -2       104       105       200
 -1       201    7    0    1
 -2         9       200        10
 -1       202    7    0    1
 -2       200       201        10
 -1       203    7    0    1
 -2       200       105       201
 -1       204    7    0    1
 -2       105       106       201
 -1       205    7    0    1
 -2        10       201        11
 -1       206    7    0    1
 -2       201       202        11
 -1       207    7    0    1
 -2       201       106       202
 -1       208    7    0    1
 -2       106       107       202
 -1       209    7    0    1
 -2        11       202        12
 -1       210    7    0    1
 -2       202       203        12
 -1       211    7    0    1
 -2       202       107       203
 -1       212    7    0    1
 -2       107       108       203
 -1       213    7    0    1
 -2        12       203        13
 -1       214    7    0    1
 -2       203       204        13
 -1       215    7    0    1
 -2       203       108       204
 -1       216    7    0    1
 -2       108       109       204
 -1       217    7    0    1
 -2        13       204        14
 -1       218    7    0    1
 -2       204       205        14
 -1       219    7    0    1
 -2       204       109       205
 -1       220    7    0    1
 -2       109       110       205
 -1       221    7    0    1
 -2        14       205        15
 -1       222    7    0    1
 -2       205       206        15
 -1       223    7    0    1
 -2       205       110       206
 -1       224    7    0    1
 -2       110       111       206
 -1       225    7    0    1
 -2        15       206        16
 -1       226    7    0    1
 -2       206       207        16
 -1       227    7    0    1
 -2       206       111       207
 -1       228    7    0    1
 -2       111       112       207
 -1       229    7    0    1
 -2        16       207        17
 -1       230    7    0    1
 -2       207       208        17
 -1       231    7    0    1
 -2       207       112       208
 -1       232    7    0    1
 -2       112       113       208
 -1       233    7    0    1
 -2        17       208        18
 -1       234    7    0    1
 -2       208       209        18
 -1       235    7    0    1
 -2       208       113       209
 -1       236    7    0    1
 -2       113       114       209
 -1       237    7    0    1
 -2        18       209        19
 -1       238    7    0    1
 -2       209       210        19
 -1       239    7    0    1
 -2       209       114       210
 -1       240    7    0    1
 -2       114       115       210
 -1       241    7    0    1
 -2        19       210        20
 -1       242    7    0    1
 -2       210       211        20
 -1       243    7    0    1
 -2       210       115       211
 -1       244    7    0    1
 -2       115       116       211
 -1       245    7    0    1
 -2        20       211        21
 -1       246    7    0    1
 -2       211       212        21
 -1       247    7    0    1
 -2       211       116       212
 -1       248    7    0    1
 -2       116       117       212
 -1       249    7    0    1
 -2        21       212        22
 -1       250    7    0    1
 -2       212       213        22
 -1       251    7    0    1
 -2       212       117       213
 -1       252    7    0    1
 -2       117       118       213
 -1       253    7    0    1
 -2        22       213        23
 -1       254    7    0    1
 -2       213       214        23
 -1       255    7    0    1
 -2       213       118       214
 -1       256    7    0    1
 -2       118       119       214
 -1       257    7    0    1
 -2        23       214        24
 -1       258    7    0    1
 -2       214       215        24
 -1       259    7    0    1
 -2       214       119       215
 -1       260    7    0    1
 -2       119       120       215
 -1       261    7    0    1
 -2        24       215        25
 -1       262    7    0    1
 -2       215       216        25
 -1       263    7    0    1
 -2       215       120       216
 -1       264    7    0    1
 -2       120       121       216
 -1       265    7    0    1
 -2        25       216        26
 -1       266    7    0    1
 -2       216       217        26
 -1       267    7    0    1
 -2       216       121       217
 -1       268    7    0    1