    1C
    1UUSER                                                              
    1UDATE              28.january.2021                                 
    1UTIME              19:41:41                                        
    1UHOST                                                              
    1UPGM               CalculiX                                        
    1UVERSION           Version DEVELOPMENT                             
    1UCOMPILETIME       Wed Jan 27 21:54:28 CET 2021                    
    1UDIR                                                               
    1UDBN                                                               
    1UMAT    1CT3D_BENCHMARK                                            
    2C                         10017                                     1
 -1        56 1.00000E+00 1.00000E+00 0.00000E+00
 -1        57 1.00000E+00 8.75000E-01 0.00000E+00
 -1        58 1.00000E+00 8.75000E-01 1.25000E-01
 -1        59 1.00000E+00 1.00000E+00 1.25000E-01
 -1        60 8.75000E-01 1.00000E+00 0.00000E+00
 -1        61 8.75000E-01 8.75000E-01-4.44089E-16
 -1        62 8.75000E-01 8.75000E-01 1.25000E-01
 -1        63 8.75000E-01 1.00000E+00 1.25000E-01
 -1        64 1.00000E+00 9.37500E-01 0.00000E+00
 -1        65 1.00000E+00 8.75000E-01 6.25000E-02
 -1        66 1.00000E+00 9.37500E-01 1.25000E-01
 -1        67 1.00000E+00 1.00000E+00 6.25000E-02
 -1        68 9.37500E-01 1.00000E+00 0.00000E+00
 -1        69 9.37500E-01 8.75000E-01 2.22045E-16
 -1        70 9.37500E-01 8.75000E-01 1.25000E-01
 -1        71 9.37500E-01 1.00000E+00 1.25000E-01
 -1        72 8.75000E-01 9.37500E-01-4.44089E-16
 -1        73 8.75000E-01 8.75000E-01 6.25000E-02
 -1        74 8.75000E-01 9.37500E-01 1.25000E-01
 -1        75 8.75000E-01 1.00000E+00 6.25000E-02
 -1        76 1.00000E+00 8.75000E-01 2.50000E-01
 -1        77 1.00000E+00 1.00000E+00 2.50000E-01
 -1        78 8.75000E-01 8.75000E-01 2.50000E-01
 -1        79 8.75000E-01 1.00000E+00 2.50000E-01
 -1        80 1.00000E+00 8.75000E-01 1.87500E-01
 -1        81 1.00000E+00 9.37500E-01 2.50000E-01
 -1        82 1.00000E+00 1.00000E+00 1.87500E-01
 -1        83 9.37500E-01 8.75000E-01 2.50000E-01
 -1        84 9.37500E-01 1.00000E+00 2.50000E-01
 -1        85 8.75000E-01 8.75000E-01 1.87500E-01
 -1        86 8.75000E-01 9.37500E-01 2.50000E-01
 -1        87 8.75000E-01 1.00000E+00 1.87500E-01
 -1        88 1.00000E+00 8.75000E-01 3.75000E-01
 -1        89 1.00000E+00 1.00000E+00 3.75000E-01
 -1        90 8.75000E-01 8.75000E-01 3.75000E-01
 -1        91 8.75000E-01 1.00000E+00 3.75000E-01
 -1        92 1.00000E+00 8.75000E-01 3.12500E-01
 -1        93 1.00000E+00 9.37500E-01 3.75000E-01
 -1        94 1.00000E+00 1.00000E+00 3.12500E-01
 -1        95 9.37500E-01 8.75000E-01 3.75000E-01
 -1        96 9.37500E-01 1.00000E+00 3.75000E-01
 -1        97 8.75000E-01 8.75000E-01 3.12500E-01
 -1        98 8.75000E-01 9.37500E-01 3.75000E-01
 -1        99 8.75000E-01 1.00000E+00 3.12500E-01
 -1       100 1.00000E+00 8.75000E-01 5.00000E-01
 -1       101 1.00000E+00 1.00000E+00 5.00000E-01
 -1       102 8.75000E-01 8.75000E-01 5.00000E-01
 -1       103 8.75000E-01 1.00000E+00 5.00000E-01
 -1       104 1.00000E+00 8.75000E-01 4.37500E-01
 -1       105 1.00000E+00 9.37500E-01 5.00000E-01
 -1       106 1.00000E+00 1.00000E+00 4.37500E-01
 -1       107 9.37500E-01 8.75000E-01 5.00000E-01
 -1       108 9.37500E-01 1.00000E+00 5.00000E-01
 -1       109 8.75000E-01 8.75000E-01 4.37500E-01
 -1       110 8.75000E-01 9.37500E-01 5.00000E-01
 -1       111 8.75000E-01 1.00000E+00 4.37500E-01
 -1       112 1.00000E+00 8.75000E-01 6.25000E-01
 -1       113 1.00000E+00 1.00000E+00 6.25000E-01
 -1       114 8.75000E-01 8.75000E-01 6.25000E-01
 -1       115 8.75000E-01 1.00000E+00 6.25000E-01
 -1       116 1.00000E+00 8.75000E-01 5.62500E-01
 -1       117 1.00000E+00 9.37500E-01 6.25000E-01
 -1       118 1.00000E+00 1.00000E+00 5.62500E-01
 -1       119 9.37500E-01 8.75000E-01 6.25000E-01
 -1       120 9.37500E-01 1.00000E+00 6.25000E-01
 -1       121 8.75000E-01 8.75000E-01 5.62500E-01
 -1       122 8.75000E-01 9.37500E-01 6.25000E-01
 -1       123 8.75000E-01 1.00000E+00 5.62500E-01
 -1       124 1.00000E+00 8.75000E-01 7.50000E-01
 -1       125 1.00000E+00 1.00000E+00 7.50000E-01
 -1       126 8.75000E-01 8.75000E-01 7.50000E-01
 -1       127 8.75000E-01 1.00000E+00 7.50000E-01
 -1       128 1.00000E+00 8.75000E-01 6.87500E-01
 -1       129 1.00000E+00 9.37500E-01 7.50000E-01
 -1       130 1.00000E+00 1.00000E+00 6.87500E-01
 -1       131 9.37500E-01 8.75000E-01 7.50000E-01
 -1       132 9.37500E-01 1.00000E+00 7.50000E-01
 -1       133 8.75000E-01 8.75000E-01 6.87500E-01
 -1       134 8.75000E-01 9.37500E-01 7.50000E-01
 -1       135 8.75000E-01 1.00000E+00 6.87500E-01
 -1       136 1.00000E+00 8.75000E-01 8.75000E-01
 -1       137 1.00000E+00 1.00000E+00 8.75000E-01
 -1       138 8.75000E-01 8.75000E-01 8.75000E-01
 -1       139 8.75000E-01 1.00000E+00 8.75000E-01
 -1       140 1.00000E+00 8.75000E-01 8.12500E-01
 -1       141 1.00000E+00 9.37500E-01 8.75000E-01
 -1       142 1.00000E+00 1.00000E+00 8.12500E-01
 -1       143 9.37500E-01 8.75000E-01 8.75000E-01
 -1       144 9.37500E-01 1.00000E+00 8.75000E-01
 -1       145 8.75000E-01 8.75000E-01 8.12500E-01
 -1       146 8.75000E-01 9.37500E-01 8.75000E-01
 -1       147 8.75000E-01 1.00000E+00 8.12500E-01
 -1       148 1.00000E+00 8.75000E-01 1.00000E+00
 -1       149 1.00000E+00 1.00000E+00 1.00000E+00
 -1       150 8.75000E-01 8.75000E-01 1.00000E+00
 -1       151 8.75000E-01 1.00000E+00 1.00000E+00
 -1       152 1.00000E+00 8.75000E-01 9.37500E-01
 -1       153 1.00000E+00 9.37500E-01 1.00000E+00
 -1       154 1.00000E+00 1.00000E+00 9.37500E-01
 -1       155 9.37500E-01 8.75000E-01 1.00000E+00
 -1       156 9.37500E-01 1.00000E+00 1.00000E+00
 -1       157 8.75000E-01 8.75000E-01 9.37500E-01
 -1       158 8.75000E-01 9.37500E-01 1.00000E+00
 -1       159 8.75000E-01 1.00000E+00 9.37500E-01
 -1       160 1.00000E+00 8.75000E-01 1.12500E+00
 -1       161 1.00000E+00 1.00000E+00 1.12500E+00
 -1       162 8.75000E-01 8.75000E-01 1.12500E+00
 -1       163 8.75000E-01 1.00000E+00 1.12500E+00
 -1       164 1.00000E+00 8.75000E-01 1.06250E+00
 -1       165 1.00000E+00 9.37500E-01 1.12500E+00
 -1       166 1.00000E+00 1.00000E+00 1.06250E+00
 -1       167 9.37500E-01 8.75000E-01 1.12500E+00
 -1       168 9.37500E-01 1.00000E+00 1.12500E+00
 -1       169 8.75000E-01 8.75000E-01 1.06250E+00
 -1       170 8.75000E-01 9.37500E-01 1.12500E+00
 -1       171 8.75000E-01 1.00000E+00 1.06250E+00
 -1       172 1.00000E+00 8.75000E-01 1.25000E+00
 -1       173 1.00000E+00 1.00000E+00 1.25000E+00
 -1       174 8.75000E-01 8.75000E-01 1.25000E+00
 -1       175 8.75000E-01 1.00000E+00 1.25000E+00
 -1       176 1.00000E+00 8.75000E-01 1.18750E+00
 -1       177 1.00000E+00 9.37500E-01 1.25000E+00
 -1       178 1.00000E+00 1.00000E+00 1.18750E+00
 -1       179 9.37500E-01 8.75000E-01 1.25000E+00
 -1       180 9.37500E-01 1.00000E+00 1.25000E+00
 -1       181 8.75000E-01 8.75000E-01 1.18750E+00
 -1       182 8.75000E-01 9.37500E-01 1.25000E+00
 -1       183 8.75000E-01 1.00000E+00 1.18750E+00
 -1       184 1.00000E+00 8.75000E-01 1.37500E+00
 -1       185 1.00000E+00 1.00000E+00 1.37500E+00
 -1       186 8.75000E-01 8.75000E-01 1.37500E+00
 -1       187 8.75000E-01 1.00000E+00 1.37500E+00
 -1       188 1.00000E+00 8.75000E-01 1.31250E+00
 -1       189 1.00000E+00 9.37500E-01 1.37500E+00
 -1       190 1.00000E+00 1.00000E+00 1.31250E+00
 -1       191 9.37500E-01 8.75000E-01 1.37500E+00
 -1       192 9.37500E-01 1.00000E+00 1.37500E+00
 -1       193 8.75000E-01 8.75000E-01 1.31250E+00
 -1       194 8.75000E-01 9.37500E-01 1.37500E+00
 -1       195 8.75000E-01 1.00000E+00 1.31250E+00
 -1       196 1.00000E+00 8.75000E-01 1.50000E+00
 -1       197 1.00000E+00 1.00000E+00 1.50000E+00
 -1       198 8.75000E-01 8.75000E-01 1.50000E+00
 -1       199 8.75000E-01 1.00000E+00 1.50000E+00
 -1       200 1.00000E+00 8.75000E-01 1.43750E+00
 -1       201 1.00000E+00 9.37500E-01 1.50000E+00
 -1       202 1.00000E+00 1.00000E+00 1.43750E+00
 -1       203 9.37500E-01 8.75000E-01 1.50000E+00
 -1       204 9.37500E-01 1.00000E+00 1.50000E+00
 -1       205 8.75000E-01 8.75000E-01 1.43750E+00
 -1       206 8.75000E-01 9.37500E-01 1.50000E+00
 -1       207 8.75000E-01 1.00000E+00 1.43750E+00
 -1       208 1.00000E+00 8.75000E-01 1.62500E+00
 -1       209 1.00000E+00 1.00000E+00 1.62500E+00
 -1       210 8.75000E-01 8.75000E-01 1.62500E+00
 -1       211 8.75000E-01 1.00000E+00 1.62500E+00
 -1       212 1.00000E+00 8.75000E-01 1.56250E+00
 -1       213 1.00000E+00 9.37500E-01 1.62500E+00
 -1       214 1.00000E+00 1.00000E+00 1.56250E+00
 -1       215 9.37500E-01 8.75000E-01 1.62500E+00
 -1       216 9.37500E-01 1.00000E+00 1.62500E+00
 -1       217 8.75000E-01 8.75000E-01 1.56250E+00
 -1       218 8.75000E-01 9.37500E-01 1.62500E+00
 -1       219 8.75000E-01 1.00000E+00 1.56250E+00
 -1       220 1.00000E+00 8.75000E-01 1.75000E+00
 -1       221 1.00000E+00 1.00000E+00 1.75000E+00
 -1       222 8.75000E-01 8.75000E-01 1.75000E+00
 -1       223 8.75000E-01 1.00000E+00 1.75000E+00
 -1       224 1.00000E+00 8.75000E-01 1.68750E+00
 -1       225 1.00000E+00 9.37500E-01 1.75000E+00
 -1       226 1.00000E+00 1.00000E+00 1.68750E+00
 -1       227 9.37500E-01 8.75000E-01 1.75000E+00
 -1       228 9.37500E-01 1.00000E+00 1.75000E+00
 -1       229 8.75000E-01 8.75000E-01 1.68750E+00
 -1       230 8.75000E-01 9.37500E-01 1.75000E+00
 -1       231 8.75000E-01 1.00000E+00 1.68750E+00
 -1       232 1.00000E+00 8.75000E-01 1.87500E+00
 -1       233 1.00000E+00 1.00000E+00 1.87500E+00
 -1       234 8.75000E-01 8.75000E-01 1.87500E+00
 -1       235 8.75000E-01 1.00000E+00 1.87500E+00
 -1       236 1.00000E+00 8.75000E-01 1.81250E+00
 -1       237 1.00000E+00 9.37500E-01 1.87500E+00
 -1       238 1.00000E+00 1.00000E+00 1.81250E+00
 -1       239 9.37500E-01 8.75000E-01 1.87500E+00
 -1       240 9.37500E-01 1.00000E+00 1.87500E+00
 -1       241 8.75000E-01 8.75000E-01 1.81250E+00
 -1       242 8.75000E-01 9.37500E-01 1.87500E+00
 -1       243 8.75000E-01 1.00000E+00 1.81250E+00
 -1       244 1.00000E+00 8.75000E-01 2.00000E+00
 -1       245 1.00000E+00 1.00000E+00 2.00000E+00
 -1       246 8.75000E-01 8.75000E-01 2.00000E+00
 -1       247 8.75000E-01 1.00000E+00 2.00000E+00
 -1       248 1.00000E+00 8.75000E-01 1.93750E+00
 -1       249 1.00000E+00 9.37500E-01 2.00000E+00
 -1       250 1.00000E+00 1.00000E+00 1.93750E+00
 -1       251 9.37500E-01 8.75000E-01 2.00000E+00
 -1       252 9.37500E-01 1.00000E+00 2.00000E+00
 -1       253 8.75000E-01 8.75000E-01 1.93750E+00
 -1       254 8.75000E-01 9.37500E-01 2.00000E+00
 -1       255 8.75000E-01 1.00000E+00 1.93750E+00
 -1       256 1.00000E+00 8.75000E-01 2.12500E+00
 -1       257 1.00000E+00 1.00000E+00 2.12500E+00
 -1       258 8.75000E-01 8.75000E-01 2.12500E+00
 -1       259 8.75000E-01 1.00000E+00 2.12500E+00
 -1       260 1.00000E+00 8.75000E-01 2.06250E+00
 -1       261 1.00000E+00 9.37500E-01 2.12500E+00
 -1       262 1.00000E+00 1.00000E+00 2.06250E+00
 -1       263 9.37500E-01 8.75000E-01 2.12500E+00
 -1       264 9.37500E-01 1.00000E+00 2.12500E+00
 -1       265 8.75000E-01 8.75000E-01 2.06250E+00
 -1       266 8.75000E-01 9.37500E-01 2.12500E+00
 -1       267 8.75000E-01 1.00000E+00 2.06250E+00
 -1       268 1.00000E+00 8.75000E-01 2.25000E+00
 -1       269 1.00000E+00 1.00000E+00 2.25000E+00
 -1       270 8.75000E-01 8.75000E-01 2.25000E+00
 -1       271 8.75000E-01 1.00000E+00 2.25000E+00
 -1       272 1.00000E+00 8.75000E-01 2.18750E+00
 -1       273 1.00000E+00 9.37500E-01 2.25000E+00
 -1       274 1.00000E+00 1.00000E+00 2.18750E+00
 -1       275 9.37500E-01 8.75000E-01 2.25000E+00
 -1       276 9.37500E-01 1.00000E+00 2.25000E+00
 -1       277 8.75000E-01 8.75000E-01 2.18750E+00
 -1       278 8.75000E-01 9.37500E-01 2.25000E+00
 -1       279 8.75000E-01 1.00000E+00 2.18750E+00
 -1       280 1.00000E+00 8.75000E-01 2.37500E+00
 -1       281 1.00000E+00 1.00000E+00 2.37500E+00
 -1       282 8.75000E-01 8.75000E-01 2.37500E+00
 -1       283 8.75000E-01 1.00000E+00 2.37500E+00
 -1       284 1.00000E+00 8.75000E-01 2.31250E+00
 -1       285 1.00000E+00 9.37500E-01 2.37500E+00
 -1       286 1.00000E+00 1.00000E+00 2.31250E+00
 -1       287 9.37500E-01 8.75000E-01 2.37500E+00
 -1       288 9.37500E-01 1.00000E+00 2.37500E+00
 -1       289 8.75000E-01 8.75000E-01 2.31250E+00
 -1       290 8.75000E-01 9.37500E-01 2.37500E+00
 -1       291 8.75000E-01 1.00000E+00 2.31250E+00
 -1       292 1.00000E+00 8.75000E-01 2.50000E+00
 -1       293 1.00000E+00 1.00000E+00 2.50000E+00
 -1       294 8.75000E-01 8.75000E-01 2.50000E+00
 -1       295 8.75000E-01 1.00000E+00 2.50000E+00
 -1       296 1.00000E+00 8.75000E-01 2.43750E+00
 -1       297 1.00000E+00 9.37500E-01 2.50000E+00
 -1       298 1.00000E+00 1.00000E+00 2.43750E+00
 -1       299 9.37500E-01 8.75000E-01 2.50000E+00
 -1       300 9.37500E-01 1.00000E+00 2.50000E+00
 -1       301 8.75000E-01 8.75000E-01 2.43750E+00
 -1       302 8.75000E-01 9.37500E-01 2.50000E+00
 -1       303 8.75000E-01 1.00000E+00 2.43750E+00
 -1       304 1.00000E+00 8.75000E-01 2.62500E+00
 -1       305 1.00000E+00 1.00000E+00 2.62500E+00
 -1       306 8.75000E-01 8.75000E-01 2.62500E+00
 -1       307 8.75000E-01 1.00000E+00 2.62500E+00
 -1       308 1.00000E+00 8.75000E-01 2.56250E+00
 -1       309 1.00000E+00 9.37500E-01 2.62500E+00
 -1       310 1.00000E+00 1.00000E+00 2.56250E+00
 -1       311 9.37500E-01 8.75000E-01 2.62500E+00
 -1       312 9.37500E-01 1.00000E+00 2.62500E+00
 -1       313 8.75000E-01 8.75000E-01 2.56250E+00
 -1       314 8.75000E-01 9.37500E-01 2.62500E+00
 -1       315 8.75000E-01 1.00000E+00 2.56250E+00
 -1       316 1.00000E+00 8.75000E-01 2.75000E+00
 -1       317 1.00000E+00 1.00000E+00 2.75000E+00
 -1       318 8.75000E-01 8.75000E-01 2.75000E+00
 -1       319 8.75000E-01 1.00000E+00 2.75000E+00
 -1       320 1.00000E+00 8.75000E-01 2.68750E+00
 -1       321 1.00000E+00 9.37500E-01 2.75000E+00
 -1       322 1.00000E+00 1.00000E+00 2.68750E+00
 -1       323 9.37500E-01 8.75000E-01 2.75000E+00
 -1       324 9.37500E-01 1.00000E+00 2.75000E+00
 -1       325 8.75000E-01 8.75000E-01 2.68750E+00
 -1       326 8.75000E-01 9.37500E-01 2.75000E+00
 -1       327 8.75000E-01 1.00000E+00 2.68750E+00
 -1       328 1.00000E+00 8.75000E-01 2.87500E+00
 -1       329 1.00000E+00 1.00000E+00 2.87500E+00
 -1       330 8.75000E-01 8.75000E-01 2.87500E+00
 -1       331 8.75000E-01 1.00000E+00 2.87500E+00
 -1       332 1.00000E+00 8.75000E-01 2.81250E+00
 -1       333 1.00000E+00 9.37500E-01 2.87500E+00
 -1       334 1.00000E+00 1.00000E+00 2.81250E+00
 -1       335 9.37500E-01 8.75000E-01 2.87500E+00
 -1       336 9.37500E-01 1.00000E+00 2.87500E+00
 -1       337 8.75000E-01 8.75000E-01 2.81250E+00
 -1       338 8.75000E-01 9.37500E-01 2.87500E+00
 -1       339 8.75000E-01 1.00000E+00 2.81250E+00
 -1       340 1.00000E+00 8.75000E-01 3.00000E+00
 -1       341 1.00000E+00 1.00000E+00 3.00000E+00
 -1       342 8.75000E-01 8.75000E-01 3.00000E+00
 -1       343 8.75000E-01 1.00000E+00 3.00000E+00
 -1       344 1.00000E+00 8.75000E-01 2.93750E+00
 -1       345 1.00000E+00 9.37500E-01 3.00000E+00
 -1       346 1.00000E+00 1.00000E+00 2.93750E+00
 -1       347 9.37500E-01 8.75000E-01 3.00000E+00
 -1       348 9.37500E-01 1.00000E+00 3.00000E+00
 -1       349 8.75000E-01 8.75000E-01 2.93750E+00
 -1       350 8.75000E-01 9.37500E-01 3.00000E+00
 -1       351 8.75000E-01 1.00000E+00 2.93750E+00
 -1       352 1.00000E+00 8.75000E-01 3.12500E+00
 -1       353 1.00000E+00 1.00000E+00 3.12500E+00
 -1       354 8.75000E-01 8.75000E-01 3.12500E+00
 -1       355 8.75000E-01 1.00000E+00 3.12500E+00
 -1       356 1.00000E+00 8.75000E-01 3.06250E+00
 -1       357 1.00000E+00 9.37500E-01 3.12500E+00
 -1       358 1.00000E+00 1.00000E+00 3.06250E+00
 -1       359 9.37500E-01 8.75000E-01 3.12500E+00
 -1       360 9.37500E-01 1.00000E+00 3.12500E+00
 -1       361 8.75000E-01 8.75000E-01 3.06250E+00
 -1       362 8.75000E-01 9.37500E-01 3.12500E+00
 -1       363 8.75000E-01 1.00000E+00 3.06250E+00
 -1       364 1.00000E+00 8.75000E-01 3.25000E+00
 -1       365 1.00000E+00 1.00000E+00 3.25000E+00
 -1       366 8.75000E-01 8.75000E-01 3.25000E+00
 -1       367 8.75000E-01 1.00000E+00 3.25000E+00
 -1       368 1.00000E+00 8.75000E-01 3.18750E+00
 -1       369 1.00000E+00 9.37500E-01 3.25000E+00
 -1       370 1.00000E+00 1.00000E+00 3.18750E+00
 -1       371 9.37500E-01 8.75000E-01 3.25000E+00
 -1       372 9.37500E-01 1.00000E+00 3.25000E+00
 -1       373 8.75000E-01 8.75000E-01 3.18750E+00
 -1       374 8.75000E-01 9.37500E-01 3.25000E+00
 -1       375 8.75000E-01 1.00000E+00 3.18750E+00
 -1       376 1.00000E+00 8.75000E-01 3.37500E+00
 -1       377 1.00000E+00 1.00000E+00 3.37500E+00
 -1       378 8.75000E-01 8.75000E-01 3.37500E+00
 -1       379 8.75000E-01 1.00000E+00 3.37500E+00
 -1       380 1.00000E+00 8.75000E-01 3.31250E+00
 -1       381 1.00000E+00 9.37500E-01 3.37500E+00
 -1       382 1.00000E+00 1.00000E+00 3.31250E+00
 -1       383 9.37500E-01 8.75000E-01 3.37500E+00
 -1       384 9.37500E-01 1.00000E+00 3.37500E+00
 -1       385 8.75000E-01 8.75000E-01 3.31250E+00
 -1       386 8.75000E-01 9.37500E-01 3.37500E+00
 -1       387 8.75000E-01 1.00000E+00 3.31250E+00
 -1       388 1.00000E+00 8.75000E-01 3.50000E+00
 -1       389 1.00000E+00 1.00000E+00 3.50000E+00
 -1       390 8.75000E-01 8.75000E-01 3.50000E+00
 -1       391 8.75000E-01 1.00000E+00 3.50000E+00
 -1       392 1.00000E+00 8.75000E-01 3.43750E+00
 -1       393 1.00000E+00 9.37500E-01 3.50000E+00
 -1       394 1.00000E+00 1.00000E+00 3.43750E+00
 -1       395 9.37500E-01 8.75000E-01 3.50000E+00
 -1       396 9.37500E-01 1.00000E+00 3.50000E+00
 -1       397 8.75000E-01 8.75000E-01 3.43750E+00
 -1       398 8.75000E-01 9.37500E-01 3.50000E+00
 -1       399 8.75000E-01 1.00000E+00 3.43750E+00
 -1       400 1.00000E+00 8.75000E-01 3.62500E+00
 -1       401 1.00000E+00 1.00000E+00 3.62500E+00
 -1       402 8.75000E-01 8.75000E-01 3.62500E+00
 -1       403 8.75000E-01 1.00000E+00 3.62500E+00
 -1       404 1.00000E+00 8.75000E-01 3.56250E+00
 -1       405 1.00000E+00 9.37500E-01 3.62500E+00
 -1       406 1.00000E+00 1.00000E+00 3.56250E+00
 -1       407 9.37500E-01 8.75000E-01 3.62500E+00
 -1       408 9.37500E-01 1.00000E+00 3.62500E+00
 -1       409 8.75000E-01 8.75000E-01 3.56250E+00
 -1       410 8.75000E-01 9.37500E-01 3.62500E+00
 -1       411 8.75000E-01 1.00000E+00 3.56250E+00
 -1       412 1.00000E+00 8.75000E-01 3.75000E+00
 -1       413 1.00000E+00 1.00000E+00 3.75000E+00
 -1       414 8.75000E-01 8.75000E-01 3.75000E+00
 -1       415 8.75000E-01 1.00000E+00 3.75000E+00
 -1       416 1.00000E+00 8.75000E-01 3.68750E+00
 -1       417 1.00000E+00 9.37500E-01 3.75000E+00
 -1       418 1.00000E+00 1.00000E+00 3.68750E+00
 -1       419 9.37500E-01 8.75000E-01 3.75000E+00
 -1       420 9.37500E-01 1.00000E+00 3.75000E+00
 -1       421 8.75000E-01 8.75000E-01 3.68750E+00
 -1       422 8.75000E-01 9.37500E-01 3.75000E+00
 -1       423 8.75000E-01 1.00000E+00 3.68750E+00
 -1       424 1.00000E+00 8.75000E-01 3.87500E+00
 -1       425 1.00000E+00 1.00000E+00 3.87500E+00
 -1       426 8.75000E-01 8.75000E-01 3.87500E+00
 -1       427 8.75000E-01 1.00000E+00 3.87500E+00
 -1       428 1.00000E+00 8.75000E-01 3.81250E+00
 -1       429 1.00000E+00 9.37500E-01 3.87500E+00
 -1       430 1.00000E+00 1.00000E+00 3.81250E+00
 -1       431 9.37500E-01 8.75000E-01 3.87500E+00
 -1       432 9.37500E-01 1.00000E+00 3.87500E+00
 -1       433 8.75000E-01 8.75000E-01 3.81250E+00
 -1       434 8.75000E-01 9.37500E-01 3.87500E+00
 -1       435 8.75000E-01 1.00000E+00 3.81250E+00
 -1       436 1.00000E+00 8.75000E-01 4.00000E+00
 -1       437 1.00000E+00 1.00000E+00 4.00000E+00
 -1       438 8.75000E-01 8.75000E-01 4.00000E+00
 -1       439 8.75000E-01 1.00000E+00 4.00000E+00
 -1       440 1.00000E+00 8.75000E-01 3.93750E+00
 -1       441 1.00000E+00 9.37500E-01 4.00000E+00
 -1       442 1.00000E+00 1.00000E+00 3.93750E+00
 -1       443 9.37500E-01 8.75000E-01 4.00000E+00
 -1       444 9.37500E-01 1.00000E+00 4.00000E+00
 -1       445 8.75000E-01 8.75000E-01 3.93750E+00
 -1       446 8.75000E-01 9.37500E-01 4.00000E+00
 -1       447 8.75000E-01 1.00000E+00 3.93750E+00
 -1       448 7.50000E-01 1.00000E+00 0.00000E+00
 -1       449 7.50000E-01 8.75000E-01-4.44089E-16
 -1       450 7.50000E-01 8.75000E-01 1.25000E-01
 -1       451 7.50000E-01 1.00000E+00 1.25000E-01
 -1       452 8.12500E-01 1.00000E+00 0.00000E+00
 -1       453 8.12500E-01 8.75000E-01 2.22045E-16
 -1       454 8.12500E-01 8.75000E-01 1.25000E-01
 -1       455 8.12500E-01 1.00000E+00 1.25000E-01
 -1       456 7.50000E-01 9.37500E-01-4.44089E-16
 -1       457 7.50000E-01 8.75000E-01 6.25000E-02
 -1       458 7.50000E-01 9.37500E-01 1.25000E-01
 -1       459 7.50000E-01 1.00000E+00 6.25000E-02
 -1       460 7.50000E-01 8.75000E-01 2.50000E-01
 -1       461 7.50000E-01 1.00000E+00 2.50000E-01
 -1       462 8.12500E-01 8.75000E-01 2.50000E-01
 -1       463 8.12500E-01 1.00000E+00 2.50000E-01
 -1       464 7.50000E-01 8.75000E-01 1.87500E-01
 -1       465 7.50000E-01 9.37500E-01 2.50000E-01
 -1       466 7.50000E-01 1.00000E+00 1.87500E-01
 -1       467 7.50000E-01 8.75000E-01 3.75000E-01
 -1       468 7.50000E-01 1.00000E+00 3.75000E-01
 -1       469 8.12500E-01 8.75000E-01 3.75000E-01
 -1       470 8.12500E-01 1.00000E+00 3.75000E-01
 -1       471 7.50000E-01 8.75000E-01 3.12500E-01
 -1       472 7.50000E-01 9.37500E-01 3.75000E-01
 -1       473 7.50000E-01 1.00000E+00 3.12500E-01
 -1       474 7.50000E-01 8.75000E-01 5.00000E-01
 -1       475 7.50000E-01 1.00000E+00 5.00000E-01
 -1       476 8.12500E-01 8.75000E-01 5.00000E-01
 -1       477 8.12500E-01 1.00000E+00 5.00000E-01
 -1       478 7.50000E-01 8.75000E-01 4.37500E-01
 -1       479 7.50000E-01 9.37500E-01 5.00000E-01
 -1       480 7.50000E-01 1.00000E+00 4.37500E-01
 -1       481 7.50000E-01 8.75000E-01 6.25000E-01
 -1       482 7.50000E-01 1.00000E+00 6.25000E-01
 -1       483 8.12500E-01 8.75000E-01 6.25000E-01
 -1       484 8.12500E-01 1.00000E+00 6.25000E-01
 -1       485 7.50000E-01 8.75000E-01 5.62500E-01
 -1       486 7.50000E-01 9.37500E-01 6.25000E-01
 -1       487 7.50000E-01 1.00000E+00 5.62500E-01
 -1       488 7.50000E-01 8.75000E-01 7.50000E-01
 -1       489 7.50000E-01 1.00000E+00 7.50000E-01
 -1       490 8.12500E-01 8.75000E-01 7.50000E-01
 -1       491 8.12500E-01 1.00000E+00 7.50000E-01
 -1       492 7.50000E-01 8.75000E-01 6.87500E-01
 -1       493 7.50000E-01 9.37500E-01 7.50000E-01
 -1       494 7.50000E-01 1.00000E+00 6.87500E-01
 -1       495 7.50000E-01 8.75000E-01 8.75000E-01
 -1       496 7.50000E-01 1.00000E+00 8.75000E-01
 -1       497 8.12500E-01 8.75000E-01 8.75000E-01
 -1       498 8.12500E-01 1.00000E+00 8.75000E-01
 -1       499 7.50000E-01 8.75000E-01 8.12500E-01
 -1       500 7.50000E-01 9.37500E-01 8.75000E-01
 -1       501 7.50000E-01 1.00000E+00 8.12500E-01
 -1       502 7.50000E-01 8.75000E-01 1.00000E+00
 -1       503 7.50000E-01 1.00000E+00 1.00000E+00
 -1       504 8.12500E-01 8.75000E-01 1.00000E+00
 -1       505 8.12500E-01 1.00000E+00 1.00000E+00
 -1       506 7.50000E-01 8.75000E-01 9.37500E-01
 -1       507 7.50000E-01 9.37500E-01 1.00000E+00
 -1       508 7.50000E-01 1.00000E+00 9.37500E-01
 -1       509 7.50000E-01 8.75000E-01 1.12500E+00
 -1       510 7.50000E-01 1.00000E+00 1.12500E+00
 -1       511 8.12500E-01 8.75000E-01 1.12500E+00
 -1       512 8.12500E-01 1.00000E+00 1.12500E+00
 -1       513 7.50000E-01 8.75000E-01 1.06250E+00
 -1       514 7.50000E-01 9.37500E-01 1.12500E+00
 -1       515 7.50000E-01 1.00000E+00 1.06250E+00
 -1       516 7.50000E-01 8.75000E-01 1.25000E+00
 -1       517 7.50000E-01 1.00000E+00 1.25000E+00
 -1       518 8.12500E-01 8.75000E-01 1.25000E+00
 -1       519 8.12500E-01 1.00000E+00 1.25000E+00
 -1       520 7.50000E-01 8.75000E-01 1.18750E+00
 -1       521 7.50000E-01 9.37500E-01 1.25000E+00
 -1       522 7.50000E-01 1.00000E+00 1.18750E+00
 -1       523 7.50000E-01 8.75000E-01 1.37500E+00
 -1       524 7.50000E-01 1.00000E+00 1.37500E+00
 -1       525 8.12500E-01 8.75000E-01 1.37500E+00
 -1       526 8.12500E-01 1.00000E+00 1.37500E+00
 -1       527 7.50000E-01 8.75000E-01 1.31250E+00
 -1       528 7.50000E-01 9.37500E-01 1.37500E+00
 -1       529 7.50000E-01 1.00000E+00 1.31250E+00
 -1       530 7.50000E-01 8.75000E-01 1.50000E+00
 -1       531 7.50000E-01 1.00000E+00 1.50000E+00
 -1       532 8.12500E-01 8.75000E-01 1.50000E+00
 -1       533 8.12500E-01 1.00000E+00 1.50000E+00
 -1       534 7.50000E-01 8.75000E-01 1.43750E+00
 -1       535 7.50000E-01 9.37500E-01 1.50000E+00
 -1       536 7.50000E-01 1.00000E+00 1.43750E+00
 -1       537 7.50000E-01 8.75000E-01 1.62500E+00
 -1       538 7.50000E-01 1.00000E+00 1.62500E+00
 -1       539 8.12500E-01 8.75000E-01 1.62500E+00
 -1       540 8.12500E-01 1.00000E+00 1.62500E+00
 -1       541 7.50000E-01 8.75000E-01 1.56250E+00
 -1       542 7.50000E-01 9.37500E-01 1.62500E+00
 -1       543 7.50000E-01 1.00000E+00 1.56250E+00
 -1       544 7.50000E-01 8.75000E-01 1.75000E+00
 -1       545 7.50000E-01 1.00000E+00 1.75000E+00
 -1       546 8.12500E-01 8.75000E-01 1.75000E+00
 -1       547 8.12500E-01 1.00000E+00 1.75000E+00
 -1       548 7.50000E-01 8.75000E-01 1.68750E+00
 -1       549 7.50000E-01 9.37500E-01 1.75000E+00
 -1       550 7.50000E-01 1.00000E+00 1.68750E+00
 -1       551 7.50000E-01 8.75000E-01 1.87500E+00
 -1       552 7.50000E-01 1.00000E+00 1.87500E+00
 -1       553 8.12500E-01 8.75000E-01 1.87500E+00
 -1       554 8.12500E-01 1.00000E+00 1.87500E+00
 -1       555 7.50000E-01 8.75000E-01 1.81250E+00
 -1       556 7.50000E-01 9.37500E-01 1.87500E+00
 -1       557 7.50000E-01 1.00000E+00 1.81250E+00
 -1       558 7.50000E-01 8.75000E-01 2.00000E+00
 -1       559 7.50000E-01 1.00000E+00 2.00000E+00
 -1       560 8.12500E-01 8.75000E-01 2.00000E+00
 -1       561 8.12500E-01 1.00000E+00 2.00000E+00
 -1       562 7.50000E-01 8.75000E-01 1.93750E+00
 -1       563 7.50000E-01 9.37500E-01 2.00000E+00
 -1       564 7.50000E-01 1.00000E+00 1.93750E+00
 -1       565 7.50000E-01 8.75000E-01 2.12500E+00
 -1       566 7.50000E-01 1.00000E+00 2.12500E+00
 -1       567 8.12500E-01 8.75000E-01 2.12500E+00
 -1       568 8.12500E-01 1.00000E+00 2.12500E+00
 -1       569 7.50000E-01 8.75000E-01 2.06250E+00
 -1       570 7.50000E-01 9.37500E-01 2.12500E+00
 -1       571 7.50000E-01 1.00000E+00 2.06250E+00
 -1       572 7.50000E-01 8.75000E-01 2.25000E+00
 -1       573 7.50000E-01 1.00000E+00 2.25000E+00
 -1       574 8.12500E-01 8.75000E-01 2.25000E+00
 -1       575 8.12500E-01 1.00000E+00 2.25000E+00
 -1       576 7.50000E-01 8.75000E-01 2.18750E+00
 -1       577 7.50000E-01 9.37500E-01 2.25000E+00
 -1       578 7.50000E-01 1.00000E+00 2.18750E+00
 -1       579 7.50000E-01 8.75000E-01 2.37500E+00
 -1       580 7.50000E-01 1.00000E+00 2.37500E+00
 -1       581 8.12500E-01 8.75000E-01 2.37500E+00
 -1       582 8.12500E-01 1.00000E+00 2.37500E+00
 -1       583 7.50000E-01 8.75000E-01 2.31250E+00
 -1       584 7.50000E-01 9.37500E-01 2.37500E+00
 -1       585 7.50000E-01 1.00000E+00 2.31250E+00
 -1       586 7.50000E-01 8.75000E-01 2.50000E+00
 -1       587 7.50000E-01 1.00000E+00 2.50000E+00
 -1       588 8.12500E-01 8.75000E-01 2.50000E+00
 -1       589 8.12500E-01 1.00000E+00 2.50000E+00
 -1       590 7.50000E-01 8.75000E-01 2.43750E+00
 -1       591 7.50000E-01 9.37500E-01 2.50000E+00
 -1       592 7.50000E-01 1.00000E+00 2.43750E+00
 -1       593 7.50000E-01 8.75000E-01 2.62500E+00
 -1       594 7.50000E-01 1.00000E+00 2.62500E+00
 -1       595 8.12500E-01 8.75000E-01 2.62500E+00
 -1       596 8.12500E-01 1.00000E+00 2.62500E+00
 -1       597 7.50000E-01 8.75000E-01 2.56250E+00
 -1       598 7.50000E-01 9.37500E-01 2.62500E+00
 -1       599 7.50000E-01 1.00000E+00 2.56250E+00
 -1       600 7.50000E-01 8.75000E-01 2.75000E+00
 -1       601 7.50000E-01 1.00000E+00 2.75000E+00
 -1       602 8.12500E-01 8.75000E-01 2.75000E+00
 -1       603 8.12500E-01 1.00000E+00 2.75000E+00
 -1       604 7.50000E-01 8.75000E-01 2.68750E+00
 -1       605 7.50000E-01 9.37500E-01 2.75000E+00
 -1       606 7.50000E-01 1.00000E+00 2.68750E+00
 -1       607 7.50000E-01 8.75000E-01 2.87500E+00
 -1       608 7.50000E-01 1.00000E+00 2.87500E+00
 -1       609 8.12500E-01 8.75000E-01 2.87500E+00
 -1       610 8.12500E-01 1.00000E+00 2.87500E+00
 -1       611 7.50000E-01 8.75000E-01 2.81250E+00
 -1       612 7.50000E-01 9.37500E-01 2.87500E+00
 -1       613 7.50000E-01 1.00000E+00 2.81250E+00
 -1       614 7.50000E-01 8.75000E-01 3.00000E+00
 -1       615 7.50000E-01 1.00000E+00 3.00000E+00
 -1       616 8.12500E-01 8.75000E-01 3.00000E+00
 -1       617 8.12500E-01 1.00000E+00 3.00000E+00
 -1       618 7.50000E-01 8.75000E-01 2.93750E+00
 -1       619 7.50000E-01 9.37500E-01 3.00000E+00
 -1       620 7.50000E-01 1.00000E+00 2.93750E+00
 -1       621 7.50000E-01 8.75000E-01 3.12500E+00
 -1       622 7.50000E-01 1.00000E+00 3.12500E+00
 -1       623 8.12500E-01 8.75000E-01 3.12500E+00
 -1       624 8.12500E-01 1.00000E+00 3.12500E+00
 -1       625 7.50000E-01 8.75000E-01 3.06250E+00
 -1       626 7.50000E-01 9.37500E-01 3.12500E+00
 -1       627 7.50000E-01 1.00000E+00 3.06250E+00
 -1       628 7.50000E-01 8.75000E-01 3.25000E+00
 -1       629 7.50000E-01 1.00000E+00 3.25000E+00
 -1       630 8.12500E-01 8.75000E-01 3.25000E+00
 -1       631 8.12500E-01 1.00000E+00 3.25000E+00
 -1       632 7.50000E-01 8.75000E-01 3.18750E+00
 -1       633 7.50000E-01 9.37500E-01 3.25000E+00
 -1       634 7.50000E-01 1.00000E+00 3.18750E+00
 -1       635 7.50000E-01 8.75000E-01 3.37500E+00
 -1       636 7.50000E-01 1.00000E+00 3.37500E+00
 -1       637 8.12500E-01 8.75000E-01 3.37500E+00
 -1       638 8.12500E-01 1.00000E+00 3.37500E+00