    1C
    1UUSER                                                              
    1UDATE              03.march.2026                                   
    1UTIME              21:53:55                                        
    1UHOST                                                              
    1UPGM               CalculiX                                        
    1UVERSION           Version DEVELOPMENT                             
    1UCOMPILETIME       Fri Feb 27 10:02:42 CET 2026                    
    1UDIR                                                               
    1UDBN                                                               
    1UMAT    1EL                                                        
    2C                             5                                     1
 -1         1 0.00000E+00 0.00000E+00 0.00000E+00
 -1         2 1.00000E+00 0.00000E+00 0.00000E+00
 -1         4 0.00000E+00 1.00000E+00 0.00000E+00
 -1         6-1.00000E+00 0.00000E+00 0.00000E+00
 -1         8 0.00000E+00-1.00000E+00 0.00000E+00
 -3
    3C                             4                                     1
 -1         1    7    0    1
 -2         1         2         8
 -1         3    7    0    1
 -2         1         8         6
 -1         5    7    0    1
 -2         1         6         4
 -1         7    7    0    1
 -2         1         4         2
 -3
    1PSTEP                         1           1           2          
  100CL  102 2.000000000           5                     0    2           1
 -4  DISP        4    1
 -5  D1          1    2    1    0
 -5  D2          1    2    2    0
 -5  D3          1    2    3    0
 -5  ALL         1    2    0    0    1ALL
 -1         1-2.83956E-22-1.15267E-21-1.02704E-03
 -1         2 0.00000E+00 0.00000E+00 0.00000E+00
 -1         4 0.00000E+00 0.00000E+00 0.00000E+00
 -1         6 0.00000E+00 0.00000E+00 0.00000E+00
 -1         8 0.00000E+00 0.00000E+00 0.00000E+00
 -3
    1PSTEP                         2           1           2          
  100CL  102 2.000000000           5                     0    2           1
 -4  STRESS      6    1
 -5  SXX         1    4    1    1
 -5  SYY         1    4    2    2
 -5  SZZ         1    4    3    3
 -5  SXY         1    4    1    2
 -5  SYZ         1    4    2    3
 -5  SZX         1    4    3    1
 -1         1 1.58222E-01 1.58222E-01 5.15856E-07 3.29597E-17-6.38263E-15-6.67019E-15
 -1         2 1.58222E-01 1.58222E-01 5.15857E-07 1.28370E-16-1.69083E-14 2.50000E-04
 -1         4 1.58222E-01 1.58222E-01 5.15856E-07 7.28584E-17 2.50000E-04-1.28173E-14
 -1         6 1.58222E-01 1.58222E-01 5.15856E-07-6.24500E-17 4.14308E-15-2.50000E-04
 -1         8 1.58222E-01 1.58222E-01 5.15857E-07-6.93889E-18-2.50000E-04-5.23060E-16
 -3
    1PSTEP                         3           1           2          
  100CL  102 2.000000000           5                     0    2           1
 -4  FORC        4    1
 -5  F1          1    2    1    0
 -5  F2          1    2    2    0
 -5  F3          1    2    3    0
 -5  ALL         1    2    0    0    1ALL
 -1         1-2.99565E-15 5.39564E-15-1.00000E-05
 -1         2 1.58222E-03 1.16552E-18 2.50000E-06
 -1         4 6.77626E-19 1.58222E-03 2.50000E-06
 -1         6-1.58222E-03 6.50521E-19 2.50000E-06
 -1         8 1.08420E-19-1.58222E-03 2.50000E-06
 -3
 9999
