    1C
    1UUSER                                                              
    1UDATE              11.june.2023                                    
    1UTIME              12:11:51                                        
    1UHOST                                                              
    1UPGM               CalculiX                                        
    1UVERSION           Version DEVELOPMENT                             
    1UCOMPILETIME       Sat Jun 10 15:57:23 CEST 2023                    
    1UDIR                                                               
    1UDBN                                                               
    1UMAT    1MC                                                        
    2C                             8                                     1
 -1         1 1.00000E+00 1.00000E+00 0.00000E+00
 -1         2 1.00000E+00 0.00000E+00 0.00000E+00
 -1         3 1.00000E+00 0.00000E+00 1.00000E+00
 -1         4 1.00000E+00 1.00000E+00 1.00000E+00
 -1         5 0.00000E+00 1.00000E+00 0.00000E+00
 -1         6 0.00000E+00 0.00000E+00 0.00000E+00
 -1         7 0.00000E+00 0.00000E+00 1.00000E+00
 -1         8 0.00000E+00 1.00000E+00 1.00000E+00
 -3
    3C                             1                                     1
 -1         1    1    0    1
 -2         1         2         3         4         5         6         7         8
 -3
    1PSTEP                         1          36           1          
  100CL  101 1.000000000           8                     0    1           1
 -4  DISP        4    1
 -5  D1          1    2    1    0
 -5  D2          1    2    2    0
 -5  D3          1    2    3    0
 -5  ALL         1    2    0    0    1ALL
 -1         1 0.00000E+00 0.00000E+00 0.00000E+00
 -1         2 0.00000E+00 0.00000E+00 0.00000E+00
 -1         3 4.20660E-02 0.00000E+00 0.00000E+00
 -1         4 4.20660E-02 0.00000E+00 0.00000E+00
 -1         5 0.00000E+00 0.00000E+00 0.00000E+00
 -1         6 0.00000E+00 0.00000E+00 0.00000E+00
 -1         7 3.37913E-02 0.00000E+00 0.00000E+00
 -1         8 3.37913E-02 0.00000E+00 0.00000E+00
 -3
    1PSTEP                         2          36           1          
  100CL  101 1.000000000           8                     0    1           1
 -4  STRESS      6    1
 -5  SXX         1    4    1    1
 -5  SYY         1    4    2    2
 -5  SZZ         1    4    3    3
 -5  SXY         1    4    1    2
 -5  SYZ         1    4    2    3
 -5  SZX         1    4    3    1
 -1         1-1.05733E+02-5.53423E+01-1.07122E+02-7.61635E-16-1.23828E-15 5.53516E+01
 -1         2-1.05733E+02-5.53423E+01-1.07122E+02-1.25741E-15-1.15083E-15 5.53516E+01
 -1         3 3.47471E+01 1.42190E+01 1.99412E+01 1.20031E-14-1.42107E-15 3.39967E+01
 -1         4 3.47471E+01 1.42190E+01 1.99412E+01 1.01529E-14-1.09472E-15 3.39967E+01
 -1         5-8.39322E+01-4.40921E+01-8.56528E+01 1.30387E-15-1.72854E-15 4.59468E+01
 -1         6-8.39322E+01-4.40921E+01-8.56528E+01 8.35794E-16-1.78812E-15 4.59468E+01
 -1         7 5.54122E+01 2.52084E+01 4.15431E+01 4.30097E-15 1.40278E-15 2.46985E+01
 -1         8 5.54122E+01 2.52084E+01 4.15431E+01 2.55406E-15 1.18043E-15 2.46985E+01
 -3
    1PSTEP                         3          36           1          
  100CL  101 1.000000000           8                     0    1           1
 -4  PE          1    1
 -5  PE          1    1    0    0
 -1         1 3.03662E-01
 -1         2 3.03662E-01
 -1         3 3.32928E-01
 -1         4 3.32928E-01
 -1         5 2.39792E-01
 -1         6 2.39792E-01
 -1         7 2.70590E-01
 -1         8 2.70590E-01
 -3
 9999
