    1C
    1UUSER                                                              
    1UDATE              11.june.2023                                    
    1UTIME              12:13:02                                        
    1UHOST                                                              
    1UPGM               CalculiX                                        
    1UVERSION           Version DEVELOPMENT                             
    1UCOMPILETIME       Sat Jun 10 15:57:23 CEST 2023                    
    1UDIR                                                               
    1UDBN                                                               
    1UMAT    1MC                                                        
    2C                             8                                     1
 -1         1 1.00000E+00 1.00000E+00 0.00000E+00
 -1         2 1.00000E+00 0.00000E+00 0.00000E+00
 -1         3 1.00000E+00 0.00000E+00 1.00000E+00
 -1         4 1.00000E+00 1.00000E+00 1.00000E+00
 -1         5 0.00000E+00 1.00000E+00 0.00000E+00
 -1         6 0.00000E+00 0.00000E+00 0.00000E+00
 -1         7 0.00000E+00 0.00000E+00 1.00000E+00
 -1         8 0.00000E+00 1.00000E+00 1.00000E+00
 -3
    3C                             1                                     1
 -1         1    1    0    1
 -2         1         2         3         4         5         6         7         8
 -3
    1PSTEP                         1           1           1          
  100CL  101 1.000000000           8                     0    1           1
 -4  DISP        4    1
 -5  D1          1    2    1    0
 -5  D2          1    2    2    0
 -5  D3          1    2    3    0
 -5  ALL         1    2    0    0    1ALL
 -1         1 0.00000E+00 0.00000E+00 0.00000E+00
 -1         2 0.00000E+00 0.00000E+00 0.00000E+00
 -1         3 1.00000E-02 0.00000E+00 0.00000E+00
 -1         4 1.00000E-02 0.00000E+00 0.00000E+00
 -1         5 0.00000E+00 0.00000E+00 0.00000E+00
 -1         6 0.00000E+00 0.00000E+00 0.00000E+00
 -1         7 1.00000E-02 0.00000E+00 0.00000E+00
 -1         8 1.00000E-02 0.00000E+00 0.00000E+00
 -3
    1PSTEP                         2           1           1          
  100CL  101 1.000000000           8                     0    1           1
 -4  STRESS      6    1
 -5  SXX         1    4    1    1
 -5  SYY         1    4    2    2
 -5  SZZ         1    4    3    3
 -5  SXY         1    4    1    2
 -5  SYZ         1    4    2    3
 -5  SZX         1    4    3    1
 -1         1-2.87938E-13-2.50364E-13-2.87938E-13 0.00000E+00 0.00000E+00-2.08410E-13
 -1         2 3.24723E-13 2.82349E-13 3.24723E-13 0.00000E+00 0.00000E+00 5.79465E-14
 -1         3-4.61957E-13-4.01674E-13-4.61957E-13 0.00000E+00 0.00000E+00 1.09755E-13
 -1         4-4.25184E-13-3.69700E-13-4.25184E-13 0.00000E+00 0.00000E+00 1.25742E-13
 -1         5 2.24256E-13 1.94992E-13 2.24256E-13 0.00000E+00 0.00000E+00 1.42680E-14
 -1         6-2.87938E-13-2.50364E-13-2.87938E-13 0.00000E+00 0.00000E+00-2.08410E-13
 -1         7-4.25184E-13-3.69700E-13-4.25184E-13 0.00000E+00 0.00000E+00 1.25742E-13
 -1         8-8.70033E-14-7.56498E-14-8.70033E-14 0.00000E+00 0.00000E+00 2.72768E-13
 -3
    1PSTEP                         3           1           1          
  100CL  101 1.000000000           8                     0    1           1
 -4  PE          1    1
 -5  PE          1    1    0    0
 -1         1 5.77327E-03
 -1         2 5.77327E-03
 -1         3 5.77327E-03
 -1         4 5.77327E-03
 -1         5 5.77327E-03
 -1         6 5.77327E-03
 -1         7 5.77327E-03
 -1         8 5.77327E-03
 -3
 9999
