    1C
    1UModel: beam     Date: 10-Mar-1998                                 
    1UUSER                                                              
    1UDATE              22.february.2024                                
    1UTIME              13:56:10                                        
    1UHOST                                                              
    1UPGM               CalculiX                                        
    1UVERSION           Version DEVELOPMENT                             
    1UCOMPILETIME       Thu 22 Feb 2024 09:48:29 AM CET                    
    1UDIR                                                               
    1UDBN                                                               
    1UMAT    1EL                                                        
    2C                           261                                     1
 -1         1 0.00000E+00 0.00000E+00 0.00000E+00
 -1         2 1.00000E+00 0.00000E+00 0.00000E+00
 -1         3 1.00000E+00 1.00000E+00 0.00000E+00
 -1         4 0.00000E+00 1.00000E+00 0.00000E+00
 -1         5 0.00000E+00 0.00000E+00 8.00000E+00
 -1         6 1.00000E+00 0.00000E+00 8.00000E+00
 -1         7 1.00000E+00 1.00000E+00 8.00000E+00
 -1         8 0.00000E+00 1.00000E+00 8.00000E+00
 -1         9 2.50000E-01 0.00000E+00 0.00000E+00
 -1        10 5.00000E-01 0.00000E+00 0.00000E+00
 -1        11 7.50000E-01 0.00000E+00 0.00000E+00
 -1        12 1.00000E+00 2.50000E-01 0.00000E+00
 -1        13 1.00000E+00 5.00000E-01 0.00000E+00
 -1        14 1.00000E+00 7.50000E-01 0.00000E+00
 -1        15 7.50000E-01 1.00000E+00 0.00000E+00
 -1        16 5.00000E-01 1.00000E+00 0.00000E+00
 -1        17 2.50000E-01 1.00000E+00 0.00000E+00
 -1        18 0.00000E+00 7.50000E-01 0.00000E+00
 -1        19 0.00000E+00 5.00000E-01 0.00000E+00
 -1        20 0.00000E+00 2.50000E-01 0.00000E+00
 -1        21 2.50000E-01 0.00000E+00 8.00000E+00
 -1        22 5.00000E-01 0.00000E+00 8.00000E+00
 -1        23 7.50000E-01 0.00000E+00 8.00000E+00
 -1        24 1.00000E+00 2.50000E-01 8.00000E+00
 -1        25 1.00000E+00 5.00000E-01 8.00000E+00
 -1        26 1.00000E+00 7.50000E-01 8.00000E+00
 -1        27 7.50000E-01 1.00000E+00 8.00000E+00
 -1        28 5.00000E-01 1.00000E+00 8.00000E+00
 -1        29 2.50000E-01 1.00000E+00 8.00000E+00
 -1        30 0.00000E+00 7.50000E-01 8.00000E+00
 -1        31 0.00000E+00 5.00000E-01 8.00000E+00
 -1        32 0.00000E+00 2.50000E-01 8.00000E+00
 -1        33 1.00000E+00 0.00000E+00 5.00000E-01
 -1        34 1.00000E+00 0.00000E+00 1.00000E+00
 -1        35 1.00000E+00 0.00000E+00 1.50000E+00
 -1        36 1.00000E+00 0.00000E+00 2.00000E+00
 -1        37 1.00000E+00 0.00000E+00 2.50000E+00
 -1        38 1.00000E+00 0.00000E+00 3.00000E+00
 -1        39 1.00000E+00 0.00000E+00 3.50000E+00
 -1        40 1.00000E+00 0.00000E+00 4.00000E+00
 -1        41 1.00000E+00 0.00000E+00 4.50000E+00
 -1        42 1.00000E+00 0.00000E+00 5.00000E+00
 -1        43 1.00000E+00 0.00000E+00 5.50000E+00
 -1        44 1.00000E+00 0.00000E+00 6.00000E+00
 -1        45 1.00000E+00 0.00000E+00 6.50000E+00
 -1        46 1.00000E+00 0.00000E+00 7.00000E+00
 -1        47 1.00000E+00 0.00000E+00 7.50000E+00
 -1        48 0.00000E+00 0.00000E+00 7.50000E+00
 -1        49 0.00000E+00 0.00000E+00 7.00000E+00
 -1        50 0.00000E+00 0.00000E+00 6.50000E+00
 -1        51 0.00000E+00 0.00000E+00 6.00000E+00
 -1        52 0.00000E+00 0.00000E+00 5.50000E+00
 -1        53 0.00000E+00 0.00000E+00 5.00000E+00
 -1        54 0.00000E+00 0.00000E+00 4.50000E+00
 -1        55 0.00000E+00 0.00000E+00 4.00000E+00
 -1        56 0.00000E+00 0.00000E+00 3.50000E+00
 -1        57 0.00000E+00 0.00000E+00 3.00000E+00
 -1        58 0.00000E+00 0.00000E+00 2.50000E+00
 -1        59 0.00000E+00 0.00000E+00 2.00000E+00
 -1        60 0.00000E+00 0.00000E+00 1.50000E+00
 -1        61 0.00000E+00 0.00000E+00 1.00000E+00
 -1        62 0.00000E+00 0.00000E+00 5.00000E-01
 -1        63 1.00000E+00 1.00000E+00 5.00000E-01
 -1        64 1.00000E+00 1.00000E+00 1.00000E+00
 -1        65 1.00000E+00 1.00000E+00 1.50000E+00
 -1        66 1.00000E+00 1.00000E+00 2.00000E+00
 -1        67 1.00000E+00 1.00000E+00 2.50000E+00
 -1        68 1.00000E+00 1.00000E+00 3.00000E+00
 -1        69 1.00000E+00 1.00000E+00 3.50000E+00
 -1        70 1.00000E+00 1.00000E+00 4.00000E+00
 -1        71 1.00000E+00 1.00000E+00 4.50000E+00
 -1        72 1.00000E+00 1.00000E+00 5.00000E+00
 -1        73 1.00000E+00 1.00000E+00 5.50000E+00
 -1        74 1.00000E+00 1.00000E+00 6.00000E+00
 -1        75 1.00000E+00 1.00000E+00 6.50000E+00
 -1        76 1.00000E+00 1.00000E+00 7.00000E+00
 -1        77 1.00000E+00 1.00000E+00 7.50000E+00
 -1        78 0.00000E+00 1.00000E+00 5.00000E-01
 -1        79 0.00000E+00 1.00000E+00 1.00000E+00
 -1        80 0.00000E+00 1.00000E+00 1.50000E+00
 -1        81 0.00000E+00 1.00000E+00 2.00000E+00
 -1        82 0.00000E+00 1.00000E+00 2.50000E+00
 -1        83 0.00000E+00 1.00000E+00 3.00000E+00
 -1        84 0.00000E+00 1.00000E+00 3.50000E+00
 -1        85 0.00000E+00 1.00000E+00 4.00000E+00
 -1        86 0.00000E+00 1.00000E+00 4.50000E+00
 -1        87 0.00000E+00 1.00000E+00 5.00000E+00
 -1        88 0.00000E+00 1.00000E+00 5.50000E+00
 -1        89 0.00000E+00 1.00000E+00 6.00000E+00
 -1        90 0.00000E+00 1.00000E+00 6.50000E+00
 -1        91 0.00000E+00 1.00000E+00 7.00000E+00
 -1        92 0.00000E+00 1.00000E+00 7.50000E+00
 -1        93 5.00000E-01 2.50000E-01 0.00000E+00
 -1        94 2.50000E-01 5.00000E-01 0.00000E+00
 -1        95 5.00000E-01 5.00000E-01 0.00000E+00
 -1        96 7.50000E-01 5.00000E-01 0.00000E+00
 -1        97 5.00000E-01 7.50000E-01 0.00000E+00
 -1        98 5.00000E-01 2.50000E-01 8.00000E+00
 -1        99 2.50000E-01 5.00000E-01 8.00000E+00
 -1       100 5.00000E-01 5.00000E-01 8.00000E+00
 -1       101 7.50000E-01 5.00000E-01 8.00000E+00
 -1       102 5.00000E-01 7.50000E-01 8.00000E+00
 -1       103 5.00000E-01 0.00000E+00 5.00000E-01
 -1       104 2.50000E-01 0.00000E+00 1.00000E+00
 -1       105 5.00000E-01 0.00000E+00 1.00000E+00
 -1       106 7.50000E-01 0.00000E+00 1.00000E+00
 -1       107 5.00000E-01 0.00000E+00 1.50000E+00
 -1       108 2.50000E-01 0.00000E+00 2.00000E+00
 -1       109 5.00000E-01 0.00000E+00 2.00000E+00
 -1       110 7.50000E-01 0.00000E+00 2.00000E+00
 -1       111 5.00000E-01 0.00000E+00 2.50000E+00
 -1       112 2.50000E-01 0.00000E+00 3.00000E+00
 -1       113 5.00000E-01 0.00000E+00 3.00000E+00
 -1       114 7.50000E-01 0.00000E+00 3.00000E+00
 -1       115 5.00000E-01 0.00000E+00 3.50000E+00
 -1       116 2.50000E-01 0.00000E+00 4.00000E+00
 -1       117 5.00000E-01 0.00000E+00 4.00000E+00
 -1       118 7.50000E-01 0.00000E+00 4.00000E+00
 -1       119 5.00000E-01 0.00000E+00 4.50000E+00
 -1       120 2.50000E-01 0.00000E+00 5.00000E+00
 -1       121 5.00000E-01 0.00000E+00 5.00000E+00
 -1       122 7.50000E-01 0.00000E+00 5.00000E+00
 -1       123 5.00000E-01 0.00000E+00 5.50000E+00
 -1       124 2.50000E-01 0.00000E+00 6.00000E+00
 -1       125 5.00000E-01 0.00000E+00 6.00000E+00
 -1       126 7.50000E-01 0.00000E+00 6.00000E+00
 -1       127 5.00000E-01 0.00000E+00 6.50000E+00
 -1       128 2.50000E-01 0.00000E+00 7.00000E+00
 -1       129 5.00000E-01 0.00000E+00 7.00000E+00
 -1       130 7.50000E-01 0.00000E+00 7.00000E+00
 -1       131 5.00000E-01 0.00000E+00 7.50000E+00
 -1       132 1.00000E+00 5.00000E-01 5.00000E-01
 -1       133 1.00000E+00 2.50000E-01 1.00000E+00
 -1       134 1.00000E+00 5.00000E-01 1.00000E+00
 -1       135 1.00000E+00 7.50000E-01 1.00000E+00
 -1       136 1.00000E+00 5.00000E-01 1.50000E+00
 -1       137 1.00000E+00 2.50000E-01 2.00000E+00
 -1       138 1.00000E+00 5.00000E-01 2.00000E+00
 -1       139 1.00000E+00 7.50000E-01 2.00000E+00
 -1       140 1.00000E+00 5.00000E-01 2.50000E+00
 -1       141 1.00000E+00 2.50000E-01 3.00000E+00
 -1       142 1.00000E+00 5.00000E-01 3.00000E+00
 -1       143 1.00000E+00 7.50000E-01 3.00000E+00
 -1       144 1.00000E+00 5.00000E-01 3.50000E+00
 -1       145 1.00000E+00 2.50000E-01 4.00000E+00
 -1       146 1.00000E+00 5.00000E-01 4.00000E+00
 -1       147 1.00000E+00 7.50000E-01 4.00000E+00
 -1       148 1.00000E+00 5.00000E-01 4.50000E+00
 -1       149 1.00000E+00 2.50000E-01 5.00000E+00
 -1       150 1.00000E+00 5.00000E-01 5.00000E+00
 -1       151 1.00000E+00 7.50000E-01 5.00000E+00
 -1       152 1.00000E+00 5.00000E-01 5.50000E+00
 -1       153 1.00000E+00 2.50000E-01 6.00000E+00
 -1       154 1.00000E+00 5.00000E-01 6.00000E+00
 -1       155 1.00000E+00 7.50000E-01 6.00000E+00
 -1       156 1.00000E+00 5.00000E-01 6.50000E+00
 -1       157 1.00000E+00 2.50000E-01 7.00000E+00
 -1       158 1.00000E+00 5.00000E-01 7.00000E+00
 -1       159 1.00000E+00 7.50000E-01 7.00000E+00
 -1       160 1.00000E+00 5.00000E-01 7.50000E+00
 -1       161 5.00000E-01 1.00000E+00 5.00000E-01
 -1       162 7.50000E-01 1.00000E+00 1.00000E+00
 -1       163 5.00000E-01 1.00000E+00 1.00000E+00
 -1       164 2.50000E-01 1.00000E+00 1.00000E+00
 -1       165 5.00000E-01 1.00000E+00 1.50000E+00
 -1       166 7.50000E-01 1.00000E+00 2.00000E+00
 -1       167 5.00000E-01 1.00000E+00 2.00000E+00
 -1       168 2.50000E-01 1.00000E+00 2.00000E+00
 -1       169 5.00000E-01 1.00000E+00 2.50000E+00
 -1       170 7.50000E-01 1.00000E+00 3.00000E+00
 -1       171 5.00000E-01 1.00000E+00 3.00000E+00
 -1       172 2.50000E-01 1.00000E+00 3.00000E+00
 -1       173 5.00000E-01 1.00000E+00 3.50000E+00
 -1       174 7.50000E-01 1.00000E+00 4.00000E+00
 -1       175 5.00000E-01 1.00000E+00 4.00000E+00
 -1       176 2.50000E-01 1.00000E+00 4.00000E+00
 -1       177 5.00000E-01 1.00000E+00 4.50000E+00
 -1       178 7.50000E-01 1.00000E+00 5.00000E+00
 -1       179 5.00000E-01 1.00000E+00 5.00000E+00
 -1       180 2.50000E-01 1.00000E+00 5.00000E+00
 -1       181 5.00000E-01 1.00000E+00 5.50000E+00
 -1       182 7.50000E-01 1.00000E+00 6.00000E+00
 -1       183 5.00000E-01 1.00000E+00 6.00000E+00
 -1       184 2.50000E-01 1.00000E+00 6.00000E+00
 -1       185 5.00000E-01 1.00000E+00 6.50000E+00
 -1       186 7.50000E-01 1.00000E+00 7.00000E+00
 -1       187 5.00000E-01 1.00000E+00 7.00000E+00
 -1       188 2.50000E-01 1.00000E+00 7.00000E+00
 -1       189 5.00000E-01 1.00000E+00 7.50000E+00
 -1       190 0.00000E+00 5.00000E-01 5.00000E-01
 -1       191 0.00000E+00 7.50000E-01 1.00000E+00
 -1       192 0.00000E+00 5.00000E-01 1.00000E+00
 -1       193 0.00000E+00 2.50000E-01 1.00000E+00
 -1       194 0.00000E+00 5.00000E-01 1.50000E+00
 -1       195 0.00000E+00 7.50000E-01 2.00000E+00
 -1       196 0.00000E+00 5.00000E-01 2.00000E+00
 -1       197 0.00000E+00 2.50000E-01 2.00000E+00
 -1       198 0.00000E+00 5.00000E-01 2.50000E+00
 -1       199 0.00000E+00 7.50000E-01 3.00000E+00
 -1       200 0.00000E+00 5.00000E-01 3.00000E+00
 -1       201 0.00000E+00 2.50000E-01 3.00000E+00
 -1       202 0.00000E+00 5.00000E-01 3.50000E+00
 -1       203 0.00000E+00 7.50000E-01 4.00000E+00
 -1       204 0.00000E+00 5.00000E-01 4.00000E+00
 -1       205 0.00000E+00 2.50000E-01 4.00000E+00
 -1       206 0.00000E+00 5.00000E-01 4.50000E+00
 -1       207 0.00000E+00 7.50000E-01 5.00000E+00
 -1       208 0.00000E+00 5.00000E-01 5.00000E+00
 -1       209 0.00000E+00 2.50000E-01 5.00000E+00
 -1       210 0.00000E+00 5.00000E-01 5.50000E+00
 -1       211 0.00000E+00 7.50000E-01 6.00000E+00
 -1       212 0.00000E+00 5.00000E-01 6.00000E+00
 -1       213 0.00000E+00 2.50000E-01 6.00000E+00
 -1       214 0.00000E+00 5.00000E-01 6.50000E+00
 -1       215 0.00000E+00 7.50000E-01 7.00000E+00
 -1       216 0.00000E+00 5.00000E-01 7.00000E+00
 -1       217 0.00000E+00 2.50000E-01 7.00000E+00
 -1       218 0.00000E+00 5.00000E-01 7.50000E+00
 -1       219 5.00000E-01 5.00000E-01 5.00000E-01
 -1       220 5.00000E-01 2.50000E-01 1.00000E+00
 -1       221 2.50000E-01 5.00000E-01 1.00000E+00
 -1       222 5.00000E-01 5.00000E-01 1.00000E+00
 -1       223 7.50000E-01 5.00000E-01 1.00000E+00
 -1       224 5.00000E-01 7.50000E-01 1.00000E+00
 -1       225 5.00000E-01 5.00000E-01 1.50000E+00
 -1       226 5.00000E-01 2.50000E-01 2.00000E+00
 -1       227 2.50000E-01 5.00000E-01 2.00000E+00
 -1       228 5.00000E-01 5.00000E-01 2.00000E+00
 -1       229 7.50000E-01 5.00000E-01 2.00000E+00
 -1       230 5.00000E-01 7.50000E-01 2.00000E+00
 -1       231 5.00000E-01 5.00000E-01 2.50000E+00
 -1       232 5.00000E-01 2.50000E-01 3.00000E+00
 -1       233 2.50000E-01 5.00000E-01 3.00000E+00
 -1       234 5.00000E-01 5.00000E-01 3.00000E+00
 -1       235 7.50000E-01 5.00000E-01 3.00000E+00
 -1       236 5.00000E-01 7.50000E-01 3.00000E+00
 -1       237 5.00000E-01 5.00000E-01 3.50000E+00
 -1       238 5.00000E-01 2.50000E-01 4.00000E+00
 -1       239 2.50000E-01 5.00000E-01 4.00000E+00
 -1       240 5.00000E-01 5.00000E-01 4.00000E+00
 -1       241 7.50000E-01 5.00000E-01 4.00000E+00
 -1       242 5.00000E-01 7.50000E-01 4.00000E+00
 -1       243 5.00000E-01 5.00000E-01 4.50000E+00
 -1       244 5.00000E-01 2.50000E-01 5.00000E+00
 -1       245 2.50000E-01 5.00000E-01 5.00000E+00
 -1       246 5.00000E-01 5.00000E-01 5.00000E+00
 -1       247 7.50000E-01 5.00000E-01 5.00000E+00
 -1       248 5.00000E-01 7.50000E-01 5.00000E+00
 -1       249 5.00000E-01 5.00000E-01 5.50000E+00
 -1       250 5.00000E-01 2.50000E-01 6.00000E+00
 -1       251 2.50000E-01 5.00000E-01 6.00000E+00
 -1       252 5.00000E-01 5.00000E-01 6.00000E+00
 -1       253 7.50000E-01 5.00000E-01 6.00000E+00
 -1       254 5.00000E-01 7.50000E-01 6.00000E+00
 -1       255 5.00000E-01 5.00000E-01 6.50000E+00
 -1       256 5.00000E-01 2.50000E-01 7.00000E+00
 -1       257 2.50000E-01 5.00000E-01 7.00000E+00
 -1       258 5.00000E-01 5.00000E-01 7.00000E+00
 -1       259 7.50000E-01 5.00000E-01 7.00000E+00
 -1       260 5.00000E-01 7.50000E-01 7.00000E+00
 -1       261 5.00000E-01 5.00000E-01 7.50000E+00
 -3
    3C                            32                                     1
 -1         1    4    0    1
 -2         1        10        95        19        61       105       222       192         9        93
 -2        94        20        62       103       219       190       104       220       221       193
 -1         2    4    0    1
 -2        10         2        13        95       105        34       134       222        11        12
 -2        96        93       103        33       132       219       106       133       223       220
 -1         3    4    0    1
 -2        19        95        16         4       192       222       163        79        94        97
 -2        17        18       190       219       161        78       221       224       164       191
 -1         4    4    0    1
 -2        95        13         3        16       222       134        64       163        96        14
 -2        15        97       219       132        63       161       223       135       162       224
 -1         5    4    0    1
 -2        61       105       222       192        59       109       228       196       104       220
 -2       221       193        60       107       225       194       108       226       227       197
 -1         6    4    0    1
 -2       105        34       134       222       109        36       138       228       106       133
 -2       223       220       107        35       136       225       110       137       229       226
 -1         7    4    0    1
 -2       192       222       163        79       196       228       167        81       221       224
 -2       164       191       194       225       165        80       227       230       168       195
 -1         8    4    0    1
 -2       222       134        64       163       228       138        66       167       223       135
 -2       162       224       225       136        65       165       229       139       166       230
 -1         9    4    0    1
 -2        59       109       228       196        57       113       234       200       108       226
 -2       227       197        58       111       231       198       112       232       233       201
 -1        10    4    0    1
 -2       109        36       138       228       113        38       142       234       110       137
 -2       229       226       111        37       140       231       114       141       235       232
 -1        11    4    0    1
 -2       196       228       167        81       200       234       171        83       227       230
 -2       168       195       198       231       169        82       233       236       172       199
 -1        12    4    0    1
 -2       228       138        66       167       234       142        68       171       229       139
 -2       166       230       231       140        67       169       235       143       170       236
 -1        13    4    0    1
 -2        57       113       234       200        55       117       240       204       112       232
 -2       233       201        56       115       237       202       116       238       239       205
 -1        14    4    0    1
 -2       113        38       142       234       117        40       146       240       114       141
 -2       235       232       115        39       144       237       118       145       241       238
 -1        15    4    0    1
 -2       200       234       171        83       204       240       175        85       233       236
 -2       172       199       202       237       173        84       239       242       176       203
 -1        16    4    0    1
 -2       234       142        68       171       240       146        70       175       235       143
 -2       170       236       237       144        69       173       241       147       174       242
 -1        17    4    0    1
 -2        55       117       240       204        53       121       246       208       116       238
 -2       239       205        54       119       243       206       120       244       245       209
 -1        18    4    0    1
 -2       117        40       146       240       121        42       150       246       118       145
 -2       241       238       119        41       148       243       122       149       247       244
 -1        19    4    0    1
 -2       204       240       175        85       208       246       179        87       239       242
 -2       176       203       206       243       177        86       245       248       180       207
 -1        20    4    0    1
 -2       240       146        70       175       246       150        72       179       241       147
 -2       174       242       243       148        71       177       247       151       178       248
 -1        21    4    0    1
 -2        53       121       246       208        51       125       252       212       120       244
 -2       245       209        52       123       249       210       124       250       251       213
 -1        22    4    0    1
 -2       121        42       150       246       125        44       154       252       122       149
 -2       247       244       123        43       152       249       126       153       253       250
 -1        23    4    0    1
 -2       208       246       179        87       212       252       183        89       245       248
 -2       180       207       210       249       181        88       251       254       184       211
 -1        24    4    0    1
 -2       246       150        72       179       252       154        74       183       247       151
 -2       178       248       249       152        73       181       253       155       182       254
 -1        25    4    0    1
 -2        51       125       252       212        49       129       258       216       124       250
 -2       251       213        50       127       255       214       128       256       257       217
 -1        26    4    0    1
 -2       125        44       154       252       129        46       158       258       126       153
 -2       253       250       127        45       156       255       130       157       259       256
 -1        27    4    0    1
 -2       212       252       183        89       216       258       187        91       251       254
 -2       184       211       214       255       185        90       257       260       188       215
 -1        28    4    0    1
 -2       252       154        74       183       258       158        76       187       253       155
 -2       182       254       255       156        75       185       259       159       186       260
 -1        29    4    0    1
 -2        49       129       258       216         5        22       100        31       128       256
 -2       257       217        48       131       261       218        21        98        99        32
 -1        30    4    0    1
 -2       129        46       158       258        22         6        25       100       130       157
 -2       259       256       131        47       160       261        23        24       101        98
 -1        31    4    0    1
 -2       216       258       187        91        31       100        28         8       257       260
 -2       188       215       218       261       189        92        99       102        29        30
 -1        32    4    0    1
 -2       258       158        76       187       100        25         7        28       259       159
 -2       186       260       261       160        77       189       101        26        27       102
 -3
    1PSTEP                         1           1           1          
  100CL  101 1.000000000         261                     0    1           1
 -4  DISP        4    1
 -5  D1          1    2    1    0
 -5  D2          1    2    2    0
 -5  D3          1    2    3    0
 -5  ALL         1    2    0    0    1ALL
 -1         1-9.05705E-05 3.49892E-04 2.37704E-03
 -1         2-1.09983E-04 3.49892E-04 2.37704E-03
 -1         3 0.00000E+00 0.00000E+00 0.00000E+00
 -1         4-2.00554E-04 0.00000E+00 0.00000E+00
 -1         5-9.05705E-05 3.49892E-04 1.27038E-04
 -1         6-1.09983E-04 3.49892E-04 1.27038E-04
 -1         7 0.00000E+00 0.00000E+00 2.50408E-03
 -1         8-2.00554E-04 0.00000E+00 2.50408E-03
 -1         9-9.75290E-05 3.80970E-04 2.37661E-03
 -1        10-1.00277E-04 3.81093E-04 2.37576E-03
 -1        11-1.03025E-04 3.80970E-04 2.37661E-03
 -1        12-9.50123E-05 3.82897E-04 1.80633E-03
 -1        13-9.55114E-05 4.04399E-04 1.25508E-03
 -1        14-1.06282E-04 2.25625E-04 6.93963E-04
 -1        15-5.51894E-05 3.00523E-04 6.97188E-05
 -1        16-1.00277E-04 4.31995E-04 1.54065E-04
 -1        17-1.45364E-04 3.00523E-04 6.97188E-05
 -1        18-9.42722E-05 2.25625E-04 6.93963E-04
 -1        19-1.05042E-04 4.04399E-04 1.25508E-03
 -1        20-1.05541E-04 3.82897E-04 1.80633E-03
 -1        21-9.75290E-05 3.80970E-04 1.27465E-04
 -1        22-1.00277E-04 3.81093E-04 1.28317E-04
 -1        23-1.03025E-04 3.80970E-04 1.27465E-04
 -1        24-9.50123E-05 3.82897E-04 6.97745E-04
 -1        25-9.55114E-05 4.04399E-04 1.24900E-03
 -1        26-1.06282E-04 2.25625E-04 1.81011E-03
 -1        27-5.51894E-05 3.00523E-04 2.43436E-03
 -1        28-1.00277E-04 4.31995E-04 2.35001E-03
 -1        29-1.45364E-04 3.00523E-04 2.43436E-03
 -1        30-9.42722E-05 2.25625E-04 1.81011E-03
 -1        31-1.05042E-04 4.04399E-04 1.24900E-03
 -1        32-1.05541E-04 3.82897E-04 6.97745E-04
 -1        33-9.47242E-05 1.52315E-03 2.36631E-03
 -1        34-7.85950E-05 2.64590E-03 2.31960E-03
 -1        35-6.64540E-05 3.72538E-03 2.22442E-03
 -1        36-5.76541E-05 4.64994E-03 2.10551E-03
 -1        37-4.97390E-05 5.48337E-03 1.94140E-03
 -1        38-3.74142E-05 6.06897E-03 1.74697E-03
 -1        39-2.39424E-05 6.55655E-03 1.51321E-03
 -1        40-2.84111E-05 6.62771E-03 1.25204E-03
 -1        41-2.39424E-05 6.55655E-03 9.90869E-04
 -1        42-3.74142E-05 6.06897E-03 7.57108E-04
 -1        43-4.97390E-05 5.48337E-03 5.62673E-04
 -1        44-5.76541E-05 4.64994E-03 3.98567E-04
 -1        45-6.64540E-05 3.72538E-03 2.79655E-04
 -1        46-7.85950E-05 2.64590E-03 1.84480E-04
 -1        47-9.47242E-05 1.52315E-03 1.37768E-04
 -1        48-1.05830E-04 1.52315E-03 1.37768E-04
 -1        49-1.21959E-04 2.64590E-03 1.84480E-04
 -1        50-1.34100E-04 3.72538E-03 2.79655E-04
 -1        51-1.42900E-04 4.64994E-03 3.98567E-04
 -1        52-1.50815E-04 5.48337E-03 5.62673E-04
 -1        53-1.63140E-04 6.06897E-03 7.57108E-04
 -1        54-1.76611E-04 6.55655E-03 9.90869E-04
 -1        55-1.72143E-04 6.62771E-03 1.25204E-03
 -1        56-1.76611E-04 6.55655E-03 1.51321E-03
 -1        57-1.63140E-04 6.06897E-03 1.74697E-03
 -1        58-1.50815E-04 5.48337E-03 1.94140E-03
 -1        59-1.42900E-04 4.64994E-03 2.10551E-03
 -1        60-1.34100E-04 3.72538E-03 2.22442E-03
 -1        61-1.21959E-04 2.64590E-03 2.31960E-03
 -1        62-1.05830E-04 1.52315E-03 2.36631E-03
 -1        63-7.35327E-05 1.54248E-03 1.12409E-04
 -1        64-1.53956E-04 2.61487E-03 1.85091E-04
 -1        65-1.32707E-04 3.73771E-03 2.72867E-04
 -1        66-1.44330E-04 4.63708E-03 3.91720E-04
 -1        67-1.50624E-04 5.48133E-03 5.53060E-04
 -1        68-1.68708E-04 6.09865E-03 7.51993E-04
 -1        69-1.74578E-04 6.53190E-03 9.86515E-04
 -1        70-1.83731E-04 6.66912E-03 1.25204E-03
 -1        71-1.74578E-04 6.53190E-03 1.51756E-03
 -1        72-1.68708E-04 6.09865E-03 1.75208E-03
 -1        73-1.50624E-04 5.48133E-03 1.95102E-03
 -1        74-1.44330E-04 4.63708E-03 2.11236E-03
 -1        75-1.32707E-04 3.73771E-03 2.23121E-03
 -1        76-1.53956E-04 2.61487E-03 2.31899E-03
 -1        77-7.35327E-05 1.54248E-03 2.39167E-03
 -1        78-1.27021E-04 1.54248E-03 1.12409E-04
 -1        79-4.65982E-05 2.61487E-03 1.85091E-04
 -1        80-6.78466E-05 3.73771E-03 2.72867E-04
 -1        81-5.62238E-05 4.63708E-03 3.91720E-04
 -1        82-4.99298E-05 5.48133E-03 5.53060E-04
 -1        83-3.18458E-05 6.09865E-03 7.51993E-04
 -1        84-2.59763E-05 6.53190E-03 9.86515E-04
 -1        85-1.68227E-05 6.66912E-03 1.25204E-03
 -1        86-2.59763E-05 6.53190E-03 1.51756E-03
 -1        87-3.18458E-05 6.09865E-03 1.75208E-03
 -1        88-4.99298E-05 5.48133E-03 1.95102E-03
 -1        89-5.62238E-05 4.63708E-03 2.11236E-03
 -1        90-6.78466E-05 3.73771E-03 2.23121E-03
 -1        91-4.65982E-05 2.61487E-03 2.31899E-03
 -1        92-1.27021E-04 1.54248E-03 2.39167E-03
 -1        93-1.00277E-04 3.77359E-04 1.81212E-03
 -1        94-9.68204E-05 3.67226E-04 1.25242E-03
 -1        95-1.00277E-04 3.75902E-04 1.24771E-03
 -1        96-1.03733E-04 3.67226E-04 1.25242E-03
 -1        97-1.00277E-04 3.97730E-04 6.83896E-04
 -1        98-1.00277E-04 3.77359E-04 6.91953E-04
 -1        99-9.68204E-05 3.67226E-04 1.25166E-03
 -1       100-1.00277E-04 3.75902E-04 1.25637E-03
 -1       101-1.03733E-04 3.67226E-04 1.25166E-03
 -1       102-1.00277E-04 3.97730E-04 1.82018E-03
 -1       103-1.00277E-04 1.51103E-03 2.36565E-03
 -1       104-1.10802E-04 2.64515E-03 2.32160E-03
 -1       105-1.00277E-04 2.65575E-03 2.32041E-03
 -1       106-8.97519E-05 2.64515E-03 2.32160E-03
 -1       107-1.00277E-04 3.69665E-03 2.23115E-03
 -1       108-1.21748E-04 4.65035E-03 2.10556E-03
 -1       109-1.00277E-04 4.66566E-03 2.10372E-03
 -1       110-7.88063E-05 4.65035E-03 2.10556E-03
 -1       111-1.00277E-04 5.43468E-03 1.94457E-03
 -1       112-1.31141E-04 6.09748E-03 1.75093E-03
 -1       113-1.00277E-04 6.11734E-03 1.75090E-03
 -1       114-6.94132E-05 6.09748E-03 1.75093E-03
 -1       115-1.00277E-04 6.46918E-03 1.51503E-03
 -1       116-1.38517E-04 6.69476E-03 1.25204E-03
 -1       117-1.00277E-04 6.87055E-03 1.25204E-03
 -1       118-6.20364E-05 6.69476E-03 1.25204E-03
 -1       119-1.00277E-04 6.46918E-03 9.89049E-04
 -1       120-1.31141E-04 6.09748E-03 7.53149E-04
 -1       121-1.00277E-04 6.11734E-03 7.53179E-04
 -1       122-6.94132E-05 6.09748E-03 7.53149E-04
 -1       123-1.00277E-04 5.43468E-03 5.59506E-04
 -1       124-1.21748E-04 4.65035E-03 3.98517E-04
 -1       125-1.00277E-04 4.66566E-03 4.00353E-04
 -1       126-7.88063E-05 4.65035E-03 3.98517E-04
 -1       127-1.00277E-04 3.69665E-03 2.72932E-04
 -1       128-1.10802E-04 2.64515E-03 1.82478E-04
 -1       129-1.00277E-04 2.65575E-03 1.83668E-04
 -1       130-8.97519E-05 2.64515E-03 1.82478E-04
 -1       131-1.00277E-04 1.51103E-03 1.38431E-04
 -1       132-1.00733E-04 1.51122E-03 1.25241E-03
 -1       133-9.05799E-05 2.67030E-03 1.77722E-03
 -1       134-9.92218E-05 2.69205E-03 1.24459E-03
 -1       135-1.11966E-04 2.65089E-03 7.07596E-04
 -1       136-1.02090E-04 3.72105E-03 1.25206E-03
 -1       137-7.74885E-05 4.68332E-03 1.66955E-03
 -1       138-9.88616E-05 4.70436E-03 1.24447E-03
 -1       139-1.25468E-04 4.67731E-03 8.26949E-04
 -1       140-9.92279E-05 5.49872E-03 1.24999E-03
 -1       141-6.85491E-05 6.11851E-03 1.48879E-03
 -1       142-9.83130E-05 6.15644E-03 1.24441E-03
 -1       143-1.33514E-04 6.13544E-03 1.00459E-03
 -1       144-1.00514E-04 6.55138E-03 1.24761E-03
 -1       145-5.47059E-05 6.69308E-03 1.25204E-03
 -1       146-9.40015E-05 6.72099E-03 1.25204E-03
 -1       147-1.34664E-04 6.70610E-03 1.25204E-03
 -1       148-1.00514E-04 6.55138E-03 1.25647E-03
 -1       149-6.85491E-05 6.11851E-03 1.01529E-03
 -1       150-9.83130E-05 6.15644E-03 1.25966E-03
 -1       151-1.33514E-04 6.13544E-03 1.49949E-03
 -1       152-9.92279E-05 5.49872E-03 1.25409E-03
 -1       153-7.74885E-05 4.68332E-03 8.34529E-04
 -1       154-9.88616E-05 4.70436E-03 1.25961E-03
 -1       155-1.25468E-04 4.67731E-03 1.67713E-03
 -1       156-1.02090E-04 3.72105E-03 1.25202E-03
 -1       157-9.05799E-05 2.67030E-03 7.26861E-04
 -1       158-9.92218E-05 2.69205E-03 1.25949E-03
 -1       159-1.11966E-04 2.65089E-03 1.79648E-03
 -1       160-1.00733E-04 1.51122E-03 1.25167E-03
 -1       161-1.00277E-04 1.48668E-03 1.24850E-04