    1C
    1UUSER                                                              
    1UDATE              18.may.2024                                     
    1UTIME              21:32:09                                        
    1UHOST                                                              
    1UPGM               CalculiX                                        
    1UVERSION           Version DEVELOPMENT                             
    1UCOMPILETIME       Fri May 17 16:12:00 CEST 2024                    
    1UDIR                                                               
    1UDBN                                                               
    1UMAT    11M                                                        
    1UMAT    22M                                                        
    1UMAT    33M                                                        
    1UMAT    44M                                                        
    1UMAT    55M                                                        
    1UMAT    66M                                                        
    1UMAT    77M                                                        
    1UMAT    88M                                                        
    1UMAT    99M                                                        
    1UMAT   1010M                                                       
    2C                           261                                     1
 -1         1 0.00000E+00 0.00000E+00 0.00000E+00
 -1         2 1.00000E+00 0.00000E+00 0.00000E+00
 -1         3 1.00000E+00 1.00000E+00 0.00000E+00
 -1         4 0.00000E+00 1.00000E+00 0.00000E+00
 -1         5 0.00000E+00 0.00000E+00 8.00000E+00
 -1         6 1.00000E+00 0.00000E+00 8.00000E+00
 -1         7 1.00000E+00 1.00000E+00 8.00000E+00
 -1         8 0.00000E+00 1.00000E+00 8.00000E+00
 -1         9 2.50000E-01 0.00000E+00 0.00000E+00
 -1        10 5.00000E-01 0.00000E+00 0.00000E+00
 -1        11 7.50000E-01 0.00000E+00 0.00000E+00
 -1        12 1.00000E+00 2.50000E-01 0.00000E+00
 -1        13 1.00000E+00 5.00000E-01 0.00000E+00
 -1        14 1.00000E+00 7.50000E-01 0.00000E+00
 -1        15 7.50000E-01 1.00000E+00 0.00000E+00
 -1        16 5.00000E-01 1.00000E+00 0.00000E+00
 -1        17 2.50000E-01 1.00000E+00 0.00000E+00
 -1        18 0.00000E+00 7.50000E-01 0.00000E+00
 -1        19 0.00000E+00 5.00000E-01 0.00000E+00
 -1        20 0.00000E+00 2.50000E-01 0.00000E+00
 -1        21 2.50000E-01 0.00000E+00 8.00000E+00
 -1        22 5.00000E-01 0.00000E+00 8.00000E+00
 -1        23 7.50000E-01 0.00000E+00 8.00000E+00
 -1        24 1.00000E+00 2.50000E-01 8.00000E+00
 -1        25 1.00000E+00 5.00000E-01 8.00000E+00
 -1        26 1.00000E+00 7.50000E-01 8.00000E+00
 -1        27 7.50000E-01 1.00000E+00 8.00000E+00
 -1        28 5.00000E-01 1.00000E+00 8.00000E+00
 -1        29 2.50000E-01 1.00000E+00 8.00000E+00
 -1        30 0.00000E+00 7.50000E-01 8.00000E+00
 -1        31 0.00000E+00 5.00000E-01 8.00000E+00
 -1        32 0.00000E+00 2.50000E-01 8.00000E+00
 -1        33 1.00000E+00 0.00000E+00 5.00000E-01
 -1        34 1.00000E+00 0.00000E+00 1.00000E+00
 -1        35 1.00000E+00 0.00000E+00 1.50000E+00
 -1        36 1.00000E+00 0.00000E+00 2.00000E+00
 -1        37 1.00000E+00 0.00000E+00 2.50000E+00
 -1        38 1.00000E+00 0.00000E+00 3.00000E+00
 -1        39 1.00000E+00 0.00000E+00 3.50000E+00
 -1        40 1.00000E+00 0.00000E+00 4.00000E+00
 -1        41 1.00000E+00 0.00000E+00 4.50000E+00
 -1        42 1.00000E+00 0.00000E+00 5.00000E+00
 -1        43 1.00000E+00 0.00000E+00 5.50000E+00
 -1        44 1.00000E+00 0.00000E+00 6.00000E+00
 -1        45 1.00000E+00 0.00000E+00 6.50000E+00
 -1        46 1.00000E+00 0.00000E+00 7.00000E+00
 -1        47 1.00000E+00 0.00000E+00 7.50000E+00
 -1        48 0.00000E+00 0.00000E+00 7.50000E+00
 -1        49 0.00000E+00 0.00000E+00 7.00000E+00
 -1        50 0.00000E+00 0.00000E+00 6.50000E+00
 -1        51 0.00000E+00 0.00000E+00 6.00000E+00
 -1        52 0.00000E+00 0.00000E+00 5.50000E+00
 -1        53 0.00000E+00 0.00000E+00 5.00000E+00
 -1        54 0.00000E+00 0.00000E+00 4.50000E+00
 -1        55 0.00000E+00 0.00000E+00 4.00000E+00
 -1        56 0.00000E+00 0.00000E+00 3.50000E+00
 -1        57 0.00000E+00 0.00000E+00 3.00000E+00
 -1        58 0.00000E+00 0.00000E+00 2.50000E+00
 -1        59 0.00000E+00 0.00000E+00 2.00000E+00
 -1        60 0.00000E+00 0.00000E+00 1.50000E+00
 -1        61 0.00000E+00 0.00000E+00 1.00000E+00
 -1        62 0.00000E+00 0.00000E+00 5.00000E-01
 -1        63 1.00000E+00 1.00000E+00 5.00000E-01
 -1        64 1.00000E+00 1.00000E+00 1.00000E+00
 -1        65 1.00000E+00 1.00000E+00 1.50000E+00
 -1        66 1.00000E+00 1.00000E+00 2.00000E+00
 -1        67 1.00000E+00 1.00000E+00 2.50000E+00
 -1        68 1.00000E+00 1.00000E+00 3.00000E+00
 -1        69 1.00000E+00 1.00000E+00 3.50000E+00
 -1        70 1.00000E+00 1.00000E+00 4.00000E+00
 -1        71 1.00000E+00 1.00000E+00 4.50000E+00
 -1        72 1.00000E+00 1.00000E+00 5.00000E+00
 -1        73 1.00000E+00 1.00000E+00 5.50000E+00
 -1        74 1.00000E+00 1.00000E+00 6.00000E+00
 -1        75 1.00000E+00 1.00000E+00 6.50000E+00
 -1        76 1.00000E+00 1.00000E+00 7.00000E+00
 -1        77 1.00000E+00 1.00000E+00 7.50000E+00
 -1        78 0.00000E+00 1.00000E+00 5.00000E-01
 -1        79 0.00000E+00 1.00000E+00 1.00000E+00
 -1        80 0.00000E+00 1.00000E+00 1.50000E+00
 -1        81 0.00000E+00 1.00000E+00 2.00000E+00
 -1        82 0.00000E+00 1.00000E+00 2.50000E+00
 -1        83 0.00000E+00 1.00000E+00 3.00000E+00
 -1        84 0.00000E+00 1.00000E+00 3.50000E+00
 -1        85 0.00000E+00 1.00000E+00 4.00000E+00
 -1        86 0.00000E+00 1.00000E+00 4.50000E+00
 -1        87 0.00000E+00 1.00000E+00 5.00000E+00
 -1        88 0.00000E+00 1.00000E+00 5.50000E+00
 -1        89 0.00000E+00 1.00000E+00 6.00000E+00
 -1        90 0.00000E+00 1.00000E+00 6.50000E+00
 -1        91 0.00000E+00 1.00000E+00 7.00000E+00
 -1        92 0.00000E+00 1.00000E+00 7.50000E+00
 -1        93 5.00000E-01 2.50000E-01 0.00000E+00
 -1        94 2.50000E-01 5.00000E-01 0.00000E+00
 -1        95 5.00000E-01 5.00000E-01 0.00000E+00
 -1        96 7.50000E-01 5.00000E-01 0.00000E+00
 -1        97 5.00000E-01 7.50000E-01 0.00000E+00
 -1        98 5.00000E-01 2.50000E-01 8.00000E+00
 -1        99 2.50000E-01 5.00000E-01 8.00000E+00
 -1       100 5.00000E-01 5.00000E-01 8.00000E+00
 -1       101 7.50000E-01 5.00000E-01 8.00000E+00
 -1       102 5.00000E-01 7.50000E-01 8.00000E+00
 -1       103 5.00000E-01 0.00000E+00 5.00000E-01
 -1       104 2.50000E-01 0.00000E+00 1.00000E+00
 -1       105 5.00000E-01 0.00000E+00 1.00000E+00
 -1       106 7.50000E-01 0.00000E+00 1.00000E+00
 -1       107 5.00000E-01 0.00000E+00 1.50000E+00
 -1       108 2.50000E-01 0.00000E+00 2.00000E+00
 -1       109 5.00000E-01 0.00000E+00 2.00000E+00
 -1       110 7.50000E-01 0.00000E+00 2.00000E+00
 -1       111 5.00000E-01 0.00000E+00 2.50000E+00
 -1       112 2.50000E-01 0.00000E+00 3.00000E+00
 -1       113 5.00000E-01 0.00000E+00 3.00000E+00
 -1       114 7.50000E-01 0.00000E+00 3.00000E+00
 -1       115 5.00000E-01 0.00000E+00 3.50000E+00
 -1       116 2.50000E-01 0.00000E+00 4.00000E+00
 -1       117 5.00000E-01 0.00000E+00 4.00000E+00
 -1       118 7.50000E-01 0.00000E+00 4.00000E+00
 -1       119 5.00000E-01 0.00000E+00 4.50000E+00
 -1       120 2.50000E-01 0.00000E+00 5.00000E+00
 -1       121 5.00000E-01 0.00000E+00 5.00000E+00
 -1       122 7.50000E-01 0.00000E+00 5.00000E+00
 -1       123 5.00000E-01 0.00000E+00 5.50000E+00
 -1       124 2.50000E-01 0.00000E+00 6.00000E+00
 -1       125 5.00000E-01 0.00000E+00 6.00000E+00
 -1       126 7.50000E-01 0.00000E+00 6.00000E+00
 -1       127 5.00000E-01 0.00000E+00 6.50000E+00
 -1       128 2.50000E-01 0.00000E+00 7.00000E+00
 -1       129 5.00000E-01 0.00000E+00 7.00000E+00
 -1       130 7.50000E-01 0.00000E+00 7.00000E+00
 -1       131 5.00000E-01 0.00000E+00 7.50000E+00
 -1       132 1.00000E+00 5.00000E-01 5.00000E-01
 -1       133 1.00000E+00 2.50000E-01 1.00000E+00
 -1       134 1.00000E+00 5.00000E-01 1.00000E+00
 -1       135 1.00000E+00 7.50000E-01 1.00000E+00
 -1       136 1.00000E+00 5.00000E-01 1.50000E+00
 -1       137 1.00000E+00 2.50000E-01 2.00000E+00
 -1       138 1.00000E+00 5.00000E-01 2.00000E+00
 -1       139 1.00000E+00 7.50000E-01 2.00000E+00
 -1       140 1.00000E+00 5.00000E-01 2.50000E+00
 -1       141 1.00000E+00 2.50000E-01 3.00000E+00
 -1       142 1.00000E+00 5.00000E-01 3.00000E+00
 -1       143 1.00000E+00 7.50000E-01 3.00000E+00
 -1       144 1.00000E+00 5.00000E-01 3.50000E+00
 -1       145 1.00000E+00 2.50000E-01 4.00000E+00
 -1       146 1.00000E+00 5.00000E-01 4.00000E+00
 -1       147 1.00000E+00 7.50000E-01 4.00000E+00
 -1       148 1.00000E+00 5.00000E-01 4.50000E+00
 -1       149 1.00000E+00 2.50000E-01 5.00000E+00
 -1       150 1.00000E+00 5.00000E-01 5.00000E+00
 -1       151 1.00000E+00 7.50000E-01 5.00000E+00
 -1       152 1.00000E+00 5.00000E-01 5.50000E+00
 -1       153 1.00000E+00 2.50000E-01 6.00000E+00
 -1       154 1.00000E+00 5.00000E-01 6.00000E+00
 -1       155 1.00000E+00 7.50000E-01 6.00000E+00
 -1       156 1.00000E+00 5.00000E-01 6.50000E+00
 -1       157 1.00000E+00 2.50000E-01 7.00000E+00
 -1       158 1.00000E+00 5.00000E-01 7.00000E+00
 -1       159 1.00000E+00 7.50000E-01 7.00000E+00
 -1       160 1.00000E+00 5.00000E-01 7.50000E+00
 -1       161 5.00000E-01 1.00000E+00 5.00000E-01
 -1       162 7.50000E-01 1.00000E+00 1.00000E+00
 -1       163 5.00000E-01 1.00000E+00 1.00000E+00
 -1       164 2.50000E-01 1.00000E+00 1.00000E+00
 -1       165 5.00000E-01 1.00000E+00 1.50000E+00
 -1       166 7.50000E-01 1.00000E+00 2.00000E+00
 -1       167 5.00000E-01 1.00000E+00 2.00000E+00
 -1       168 2.50000E-01 1.00000E+00 2.00000E+00
 -1       169 5.00000E-01 1.00000E+00 2.50000E+00
 -1       170 7.50000E-01 1.00000E+00 3.00000E+00
 -1       171 5.00000E-01 1.00000E+00 3.00000E+00
 -1       172 2.50000E-01 1.00000E+00 3.00000E+00
 -1       173 5.00000E-01 1.00000E+00 3.50000E+00
 -1       174 7.50000E-01 1.00000E+00 4.00000E+00
 -1       175 5.00000E-01 1.00000E+00 4.00000E+00
 -1       176 2.50000E-01 1.00000E+00 4.00000E+00
 -1       177 5.00000E-01 1.00000E+00 4.50000E+00
 -1       178 7.50000E-01 1.00000E+00 5.00000E+00
 -1       179 5.00000E-01 1.00000E+00 5.00000E+00
 -1       180 2.50000E-01 1.00000E+00 5.00000E+00
 -1       181 5.00000E-01 1.00000E+00 5.50000E+00
 -1       182 7.50000E-01 1.00000E+00 6.00000E+00
 -1       183 5.00000E-01 1.00000E+00 6.00000E+00
 -1       184 2.50000E-01 1.00000E+00 6.00000E+00
 -1       185 5.00000E-01 1.00000E+00 6.50000E+00
 -1       186 7.50000E-01 1.00000E+00 7.00000E+00
 -1       187 5.00000E-01 1.00000E+00 7.00000E+00
 -1       188 2.50000E-01 1.00000E+00 7.00000E+00
 -1       189 5.00000E-01 1.00000E+00 7.50000E+00
 -1       190 0.00000E+00 5.00000E-01 5.00000E-01
 -1       191 0.00000E+00 7.50000E-01 1.00000E+00
 -1       192 0.00000E+00 5.00000E-01 1.00000E+00
 -1       193 0.00000E+00 2.50000E-01 1.00000E+00
 -1       194 0.00000E+00 5.00000E-01 1.50000E+00
 -1       195 0.00000E+00 7.50000E-01 2.00000E+00
 -1       196 0.00000E+00 5.00000E-01 2.00000E+00
 -1       197 0.00000E+00 2.50000E-01 2.00000E+00
 -1       198 0.00000E+00 5.00000E-01 2.50000E+00
 -1       199 0.00000E+00 7.50000E-01 3.00000E+00
 -1       200 0.00000E+00 5.00000E-01 3.00000E+00
 -1       201 0.00000E+00 2.50000E-01 3.00000E+00
 -1       202 0.00000E+00 5.00000E-01 3.50000E+00
 -1       203 0.00000E+00 7.50000E-01 4.00000E+00
 -1       204 0.00000E+00 5.00000E-01 4.00000E+00
 -1       205 0.00000E+00 2.50000E-01 4.00000E+00
 -1       206 0.00000E+00 5.00000E-01 4.50000E+00
 -1       207 0.00000E+00 7.50000E-01 5.00000E+00
 -1       208 0.00000E+00 5.00000E-01 5.00000E+00
 -1       209 0.00000E+00 2.50000E-01 5.00000E+00
 -1       210 0.00000E+00 5.00000E-01 5.50000E+00
 -1       211 0.00000E+00 7.50000E-01 6.00000E+00
 -1       212 0.00000E+00 5.00000E-01 6.00000E+00
 -1       213 0.00000E+00 2.50000E-01 6.00000E+00
 -1       214 0.00000E+00 5.00000E-01 6.50000E+00
 -1       215 0.00000E+00 7.50000E-01 7.00000E+00
 -1       216 0.00000E+00 5.00000E-01 7.00000E+00
 -1       217 0.00000E+00 2.50000E-01 7.00000E+00
 -1       218 0.00000E+00 5.00000E-01 7.50000E+00
 -1       219 5.00000E-01 5.00000E-01 5.00000E-01
 -1       220 5.00000E-01 2.50000E-01 1.00000E+00
 -1       221 2.50000E-01 5.00000E-01 1.00000E+00
 -1       222 5.00000E-01 5.00000E-01 1.00000E+00
 -1       223 7.50000E-01 5.00000E-01 1.00000E+00
 -1       224 5.00000E-01 7.50000E-01 1.00000E+00
 -1       225 5.00000E-01 5.00000E-01 1.50000E+00
 -1       226 5.00000E-01 2.50000E-01 2.00000E+00
 -1       227 2.50000E-01 5.00000E-01 2.00000E+00
 -1       228 5.00000E-01 5.00000E-01 2.00000E+00
 -1       229 7.50000E-01 5.00000E-01 2.00000E+00
 -1       230 5.00000E-01 7.50000E-01 2.00000E+00
 -1       231 5.00000E-01 5.00000E-01 2.50000E+00
 -1       232 5.00000E-01 2.50000E-01 3.00000E+00
 -1       233 2.50000E-01 5.00000E-01 3.00000E+00
 -1       234 5.00000E-01 5.00000E-01 3.00000E+00
 -1       235 7.50000E-01 5.00000E-01 3.00000E+00
 -1       236 5.00000E-01 7.50000E-01 3.00000E+00
 -1       237 5.00000E-01 5.00000E-01 3.50000E+00
 -1       238 5.00000E-01 2.50000E-01 4.00000E+00
 -1       239 2.50000E-01 5.00000E-01 4.00000E+00
 -1       240 5.00000E-01 5.00000E-01 4.00000E+00
 -1       241 7.50000E-01 5.00000E-01 4.00000E+00
 -1       242 5.00000E-01 7.50000E-01 4.00000E+00
 -1       243 5.00000E-01 5.00000E-01 4.50000E+00
 -1       244 5.00000E-01 2.50000E-01 5.00000E+00
 -1       245 2.50000E-01 5.00000E-01 5.00000E+00
 -1       246 5.00000E-01 5.00000E-01 5.00000E+00
 -1       247 7.50000E-01 5.00000E-01 5.00000E+00
 -1       248 5.00000E-01 7.50000E-01 5.00000E+00
 -1       249 5.00000E-01 5.00000E-01 5.50000E+00
 -1       250 5.00000E-01 2.50000E-01 6.00000E+00
 -1       251 2.50000E-01 5.00000E-01 6.00000E+00
 -1       252 5.00000E-01 5.00000E-01 6.00000E+00
 -1       253 7.50000E-01 5.00000E-01 6.00000E+00
 -1       254 5.00000E-01 7.50000E-01 6.00000E+00
 -1       255 5.00000E-01 5.00000E-01 6.50000E+00
 -1       256 5.00000E-01 2.50000E-01 7.00000E+00
 -1       257 2.50000E-01 5.00000E-01 7.00000E+00
 -1       258 5.00000E-01 5.00000E-01 7.00000E+00
 -1       259 7.50000E-01 5.00000E-01 7.00000E+00
 -1       260 5.00000E-01 7.50000E-01 7.00000E+00
 -1       261 5.00000E-01 5.00000E-01 7.50000E+00
 -3
    3C                            32                                     1
 -1         1    4    0   10
 -2         1        10        95        19        61       105       222       192         9        93
 -2        94        20        62       103       219       190       104       220       221       193
 -1         2    4    0   10
 -2        10         2        13        95       105        34       134       222        11        12
 -2        96        93       103        33       132       219       106       133       223       220
 -1         3    4    0   10
 -2        19        95        16         4       192       222       163        79        94        97
 -2        17        18       190       219       161        78       221       224       164       191
 -1         4    4    0   10
 -2        95        13         3        16       222       134        64       163        96        14
 -2        15        97       219       132        63       161       223       135       162       224
 -1         5    4    0   10
 -2        61       105       222       192        59       109       228       196       104       220
 -2       221       193        60       107       225       194       108       226       227       197
 -1         6    4    0   10
 -2       105        34       134       222       109        36       138       228       106       133
 -2       223       220       107        35       136       225       110       137       229       226
 -1         7    4    0   10
 -2       192       222       163        79       196       228       167        81       221       224
 -2       164       191       194       225       165        80       227       230       168       195
 -1         8    4    0   10
 -2       222       134        64       163       228       138        66       167       223       135
 -2       162       224       225       136        65       165       229       139       166       230
 -1         9    4    0   10
 -2        59       109       228       196        57       113       234       200       108       226
 -2       227       197        58       111       231       198       112       232       233       201
 -1        10    4    0   10
 -2       109        36       138       228       113        38       142       234       110       137
 -2       229       226       111        37       140       231       114       141       235       232
 -1        11    4    0   10
 -2       196       228       167        81       200       234       171        83       227       230
 -2       168       195       198       231       169        82       233       236       172       199
 -1        12    4    0   10
 -2       228       138        66       167       234       142        68       171       229       139
 -2       166       230       231       140        67       169       235       143       170       236
 -1        13    4    0   10
 -2        57       113       234       200        55       117       240       204       112       232
 -2       233       201        56       115       237       202       116       238       239       205
 -1        14    4    0   10
 -2       113        38       142       234       117        40       146       240       114       141
 -2       235       232       115        39       144       237       118       145       241       238
 -1        15    4    0   10
 -2       200       234       171        83       204       240       175        85       233       236
 -2       172       199       202       237       173        84       239       242       176       203
 -1        16    4    0   10
 -2       234       142        68       171       240       146        70       175       235       143
 -2       170       236       237       144        69       173       241       147       174       242
 -1        17    4    0   10
 -2        55       117       240       204        53       121       246       208       116       238
 -2       239       205        54       119       243       206       120       244       245       209
 -1        18    4    0   10
 -2       117        40       146       240       121        42       150       246       118       145
 -2       241       238       119        41       148       243       122       149       247       244
 -1        19    4    0   10
 -2       204       240       175        85       208       246       179        87       239       242
 -2       176       203       206       243       177        86       245       248       180       207
 -1        20    4    0   10
 -2       240       146        70       175       246       150        72       179       241       147
 -2       174       242       243       148        71       177       247       151       178       248
 -1        21    4    0   10
 -2        53       121       246       208        51       125       252       212       120       244
 -2       245       209        52       123       249       210       124       250       251       213
 -1        22    4    0   10
 -2       121        42       150       246       125        44       154       252       122       149
 -2       247       244       123        43       152       249       126       153       253       250
 -1        23    4    0   10
 -2       208       246       179        87       212       252       183        89       245       248
 -2       180       207       210       249       181        88       251       254       184       211
 -1        24    4    0   10
 -2       246       150        72       179       252       154        74       183       247       151
 -2       178       248       249       152        73       181       253       155       182       254
 -1        25    4    0   10
 -2        51       125       252       212        49       129       258       216       124       250
 -2       251       213        50       127       255       214       128       256       257       217
 -1        26    4    0   10
 -2       125        44       154       252       129        46       158       258       126       153
 -2       253       250       127        45       156       255       130       157       259       256
 -1        27    4    0   10
 -2       212       252       183        89       216       258       187        91       251       254
 -2       184       211       214       255       185        90       257       260       188       215
 -1        28    4    0   10
 -2       252       154        74       183       258       158        76       187       253       155
 -2       182       254       255       156        75       185       259       159       186       260
 -1        29    4    0   10
 -2        49       129       258       216         5        22       100        31       128       256
 -2       257       217        48       131       261       218        21        98        99        32
 -1        30    4    0   10
 -2       129        46       158       258        22         6        25       100       130       157
 -2       259       256       131        47       160       261        23        24       101        98
 -1        31    4    0   10
 -2       216       258       187        91        31       100        28         8       257       260
 -2       188       215       218       261       189        92        99       102        29        30
 -1        32    4    0   10
 -2       258       158        76       187       100        25         7        28       259       159
 -2       186       260       261       160        77       189       101        26        27       102
 -3
    1PSTEP                         1           1           1          
  100CL  101 1.000000000         261                     0    1           1
 -4  DISP        4    1
 -5  D1          1    2    1    0
 -5  D2          1    2    2    0
 -5  D3          1    2    3    0
 -5  ALL         1    2    0    0    1ALL
 -1         1 6.94726E-02 1.62014E-02 1.01306E-02
 -1         2-6.93969E-02 1.61964E-02 1.01003E-02
 -1         3 0.00000E+00 0.00000E+00 0.00000E+00
 -1         4 0.00000E+00 0.00000E+00 0.00000E+00
 -1         5 6.95071E-02 1.62582E-02-1.00581E-02
 -1         6-6.94643E-02 1.62690E-02-1.00653E-02
 -1         7 0.00000E+00 0.00000E+00 0.00000E+00
 -1         8 0.00000E+00 0.00000E+00 0.00000E+00
 -1         9 3.34500E-02 2.85530E-02 2.85530E-02
 -1        10 4.11776E-05 2.82928E-02 2.82928E-02
 -1        11-3.33698E-02 2.85528E-02 2.85528E-02
 -1        12-3.48578E-02 1.00849E-02 3.48578E-02
 -1        13 0.00000E+00 1.60556E-03-0.00000E+00
 -1        14 0.00000E+00-1.46096E-04-0.00000E+00
 -1        15 8.72974E-04 0.00000E+00-0.00000E+00
 -1        16 2.07023E-05 0.00000E+00-0.00000E+00
 -1        17-8.48916E-04 0.00000E+00-0.00000E+00
 -1        18-0.00000E+00-1.57738E-04-0.00000E+00
 -1        19-0.00000E+00 1.58717E-03-0.00000E+00
 -1        20 3.49303E-02 1.00784E-02 3.49303E-02
 -1        21 3.34607E-02 2.85620E-02-2.85620E-02
 -1        22 2.97275E-05 2.83030E-02-2.83030E-02
 -1        23-3.34077E-02 2.85644E-02-2.85644E-02
 -1        24-3.49116E-02 1.00839E-02-3.49116E-02
 -1        25 0.00000E+00 1.54989E-03 0.00000E+00
 -1        26 0.00000E+00-1.81676E-04 0.00000E+00
 -1        27 8.72482E-04 0.00000E+00 0.00000E+00
 -1        28 1.73989E-05 0.00000E+00 0.00000E+00
 -1        29-8.52484E-04 0.00000E+00 0.00000E+00
 -1        30-0.00000E+00-1.91573E-04 0.00000E+00
 -1        31-0.00000E+00 1.53229E-03 0.00000E+00
 -1        32 3.49647E-02 1.00700E-02-3.49647E-02
 -1        33-3.60961E-02 3.60961E-02 3.41663E-02
 -1        34-2.50375E-02 2.50375E-02 6.63714E-02
 -1        35-1.30130E-02 1.30130E-02 7.86102E-02
 -1        36 2.37919E-03-2.37919E-03 8.13963E-02
 -1        37 1.77098E-02-1.77098E-02 7.65794E-02
 -1        38 3.22792E-02-3.22792E-02 5.90955E-02
 -1        39 4.43320E-02-4.43320E-02 3.21888E-02
 -1        40 4.72267E-02-4.72267E-02-3.17389E-04
 -1        41 4.43236E-02-4.43236E-02-3.28078E-02
 -1        42 3.22624E-02-3.22624E-02-5.96682E-02
 -1        43 1.76850E-02-1.76850E-02-7.70775E-02
 -1        44 2.34821E-03-2.34821E-03-8.17996E-02
 -1        45-1.30504E-02 1.30504E-02-7.89171E-02
 -1        46-2.50792E-02 2.50792E-02-6.65717E-02
 -1        47-3.61423E-02 3.61423E-02-3.42320E-02
 -1        48 3.61440E-02 3.61440E-02-3.42348E-02
 -1        49 2.50659E-02 2.50659E-02-6.65800E-02
 -1        50 1.30229E-02 1.30229E-02-7.89146E-02
 -1        51-2.39197E-03-2.39197E-03-8.17901E-02
 -1        52-1.77454E-02-1.77454E-02-7.70701E-02
 -1        53-3.23347E-02-3.23347E-02-5.96639E-02
 -1        54-4.44068E-02-4.44068E-02-3.28078E-02
 -1        55-4.73056E-02-4.73056E-02-3.22542E-04
 -1        56-4.44032E-02-4.44032E-02 3.21792E-02
 -1        57-3.23296E-02-3.23296E-02 5.90830E-02
 -1        58-1.77392E-02-1.77392E-02 7.65662E-02
 -1        59-2.38729E-03-2.38729E-03 8.13839E-02
 -1        60 1.30258E-02 1.30258E-02 7.86051E-02
 -1        61 2.50653E-02 2.50653E-02 6.63776E-02
 -1        62 3.61399E-02 3.61399E-02 3.41811E-02
 -1        63-3.65291E-02-3.65291E-02 3.35783E-02
 -1        64-2.78171E-02-2.78171E-02 6.12867E-02
 -1        65-1.81309E-02-1.81309E-02 8.10179E-02
 -1        66-5.39414E-03-5.39414E-03 8.70625E-02
 -1        67 7.26669E-03 7.26669E-03 8.12116E-02
 -1        68 1.92864E-02 1.92864E-02 6.24167E-02
 -1        69 2.94121E-02 2.94121E-02 3.40728E-02
 -1        70 3.19188E-02 3.19188E-02-2.69790E-04
 -1        71 2.93527E-02 2.93527E-02-3.46027E-02
 -1        72 1.91760E-02 1.91760E-02-6.29141E-02
 -1        73 7.11491E-03 7.11491E-03-8.16563E-02
 -1        74-5.57021E-03-5.57021E-03-8.74370E-02
 -1        75-1.83255E-02-1.83255E-02-8.13113E-02
 -1        76-2.80162E-02-2.80162E-02-6.14914E-02
 -1        77-3.67284E-02-3.67284E-02-3.36972E-02
 -1        78 3.66265E-02-3.66265E-02 3.35951E-02
 -1        79 2.79267E-02-2.79267E-02 6.12972E-02
 -1        80 1.82511E-02-1.82511E-02 8.10200E-02
 -1        81 5.52678E-03-5.52678E-03 8.70610E-02
 -1        82-7.12077E-03 7.12077E-03 8.12083E-02
 -1        83-1.91297E-02 1.91297E-02 6.24132E-02
 -1        84-2.92446E-02 2.92446E-02 3.40691E-02
 -1        85-3.17505E-02 3.17505E-02-2.73039E-04
 -1        86-2.91831E-02 2.91831E-02-3.46049E-02
 -1        87-1.90151E-02 1.90151E-02-6.29154E-02
 -1        88-6.96226E-03 6.96226E-03-8.16565E-02
 -1        89 5.71066E-03-5.71066E-03-8.74378E-02
 -1        90 1.84557E-02-1.84557E-02-8.13133E-02
 -1        91 2.81367E-02-2.81367E-02-6.14991E-02
 -1        92 3.68387E-02-3.68387E-02-3.37109E-02
 -1        93 3.95219E-05 2.27122E-02 1.62552E-02
 -1        94 1.26123E-03 9.19472E-03-0.00000E+00
 -1        95 3.66743E-05 1.21196E-02-0.00000E+00
 -1        96-1.21899E-03 9.19765E-03-0.00000E+00
 -1        97 2.84352E-05 5.64863E-03-0.00000E+00
 -1        98 2.66729E-05 2.26860E-02-1.62650E-02
 -1        99 1.25571E-03 9.13370E-03 0.00000E+00
 -1       100 2.82177E-05 1.20547E-02 0.00000E+00
 -1       101-1.22399E-03 9.14253E-03 0.00000E+00
 -1       102 2.47243E-05 5.61163E-03 0.00000E+00
 -1       103 5.89672E-05 3.02596E-02 4.24833E-02
 -1       104 1.48706E-02 1.31865E-02 6.38761E-02
 -1       105 5.99712E-05 1.28527E-02 6.29165E-02
 -1       106-1.47849E-02 1.31918E-02 6.38664E-02
 -1       107 5.66960E-05-6.55806E-03 8.20626E-02
 -1       108 1.02283E-04-3.01607E-02 8.69820E-02
 -1       109 5.13218E-05-3.02171E-02 8.82597E-02
 -1       110-4.72257E-05-3.01497E-02 8.69879E-02
 -1       111 4.55432E-05-5.44085E-02 8.22279E-02
 -1       112-1.40857E-02-7.70199E-02 6.29338E-02
 -1       113 3.95667E-05-7.66067E-02 6.38078E-02
 -1       114 1.41097E-02-7.70024E-02 6.29389E-02
 -1       115 3.36797E-05-9.55870E-02 3.48660E-02
 -1       116-2.15649E-02-1.00000E-01-3.23891E-04
 -1       117 3.05285E-05-9.93770E-02-3.24143E-04
 -1       118 2.15653E-02-9.99784E-02-3.21470E-04
 -1       119 2.86846E-05-9.55939E-02-3.54977E-02
 -1       120-1.40916E-02-7.70321E-02-6.35163E-02
 -1       121 3.03801E-05-7.66175E-02-6.43910E-02
 -1       122 1.40949E-02-7.70121E-02-6.35176E-02
 -1       123 3.29305E-05-5.44209E-02-8.27351E-02
 -1       124 9.43112E-05-3.01736E-02-8.73935E-02
 -1       125 3.64698E-05-3.02279E-02-8.86710E-02
 -1       126-7.20823E-05-3.01586E-02-8.73973E-02
 -1       127 4.06228E-05-6.56517E-03-8.23707E-02
 -1       128 1.48656E-02 1.31828E-02-6.40631E-02
 -1       129 4.40773E-05 1.28513E-02-6.31056E-02
 -1       130-1.48177E-02 1.31927E-02-6.40565E-02
 -1       131 4.30255E-05 3.02648E-02-4.25600E-02
 -1       132-5.39401E-02 6.44567E-03 3.40496E-02
 -1       133-4.61227E-02 1.16069E-02 6.47834E-02
 -1       134-4.58802E-02-1.21369E-03 7.13707E-02
 -1       135-4.62610E-02-1.38260E-02 6.64103E-02
 -1       136-3.83361E-02-4.24274E-03 8.89105E-02
 -1       137-2.69005E-02-6.37645E-03 9.13104E-02
 -1       138-2.68352E-02-7.17844E-03 9.41848E-02
 -1       139-2.71071E-02-5.33714E-03 9.32444E-02
 -1       140-1.63988E-02-9.47711E-03 8.84207E-02
 -1       141-5.65326E-03-2.48799E-02 6.58369E-02
 -1       142-5.86499E-03-1.17368E-02 6.90634E-02
 -1       143-5.93807E-03 5.34513E-03 6.76657E-02
 -1       144 2.87282E-03-1.33864E-02 3.78842E-02
 -1       145 5.30207E-03-3.41705E-02-3.14454E-04
 -1       146 4.92710E-03-1.39789E-02-3.05209E-04
 -1       147 4.93037E-03 1.10278E-02-2.90039E-04
 -1       148 2.84707E-03-1.34372E-02-3.84805E-02
 -1       149-5.70113E-03-2.49227E-02-6.64040E-02