    1C
    1UModel: beam     Date: 10-Mar-1998                                 
    1UUSER                                                              
    1UDATE              23.february.2024                                
    1UTIME              17:09:01                                        
    1UHOST                                                              
    1UPGM               CalculiX                                        
    1UVERSION           Version DEVELOPMENT                             
    1UCOMPILETIME       Fri Feb 23 17:06:32 CET 2024                    
    1UDIR                                                               
    1UDBN                                                               
    1UMAT    1EL                                                        
    2C                           261                                     1
 -1         1 9.06738E-02 3.77006E-02 2.48294E-02
 -1         2 9.09394E-01 3.77195E-02 2.48671E-02
 -1         3 1.00000E+00 1.00000E+00 0.00000E+00
 -1         4 0.00000E+00 1.00000E+00 0.00000E+00
 -1         5 9.07417E-02 3.77604E-02 7.97531E+00
 -1         6 9.09259E-01 3.78282E-02 7.97517E+00
 -1         7 1.00000E+00 1.00000E+00 8.00000E+00
 -1         8 0.00000E+00 1.00000E+00 8.00000E+00
 -1         9 2.93206E-01 5.71839E-02 5.71839E-02
 -1        10 5.00046E-01 5.72913E-02 5.72913E-02
 -1        11 7.06877E-01 5.71866E-02 5.71866E-02
 -1        12 9.51793E-01 2.76555E-01 4.82071E-02
 -1        13 1.00000E+00 5.10236E-01 0.00000E+00
 -1        14 1.00000E+00 7.53925E-01 0.00000E+00
 -1        15 7.51178E-01 1.00000E+00 0.00000E+00
 -1        16 5.00030E-01 1.00000E+00 0.00000E+00
 -1        17 2.48855E-01 1.00000E+00 0.00000E+00
 -1        18 0.00000E+00 7.53908E-01 0.00000E+00
 -1        19 0.00000E+00 5.10204E-01 0.00000E+00
 -1        20 4.82947E-02 2.76530E-01 4.82947E-02
 -1        21 2.93231E-01 5.71992E-02 7.94280E+00
 -1        22 5.00029E-01 5.73104E-02 7.94269E+00
 -1        23 7.06805E-01 5.72096E-02 7.94279E+00
 -1        24 9.51700E-01 2.76556E-01 7.95170E+00
 -1        25 1.00000E+00 5.10156E-01 8.00000E+00
 -1        26 1.00000E+00 7.53873E-01 8.00000E+00
 -1        27 7.51180E-01 1.00000E+00 8.00000E+00
 -1        28 5.00029E-01 1.00000E+00 8.00000E+00
 -1        29 2.48852E-01 1.00000E+00 8.00000E+00
 -1        30 0.00000E+00 7.53856E-01 8.00000E+00
 -1        31 0.00000E+00 5.10119E-01 8.00000E+00
 -1        32 4.83584E-02 2.76505E-01 7.95164E+00
 -1        33 9.50829E-01 4.91708E-02 5.53311E-01
 -1        34 9.62591E-01 3.74092E-02 1.09154E+00
 -1        35 9.79355E-01 2.06449E-02 1.60545E+00
 -1        36 9.96993E-01 3.00685E-03 2.10810E+00
 -1        37 1.01579E+00-1.57939E-02 2.60083E+00
 -1        38 1.03362E+00-3.36239E-02 3.07780E+00
 -1        39 1.04592E+00-4.59246E-02 3.54215E+00
 -1        40 1.05175E+00-5.17531E-02 3.99949E+00
 -1        41 1.04590E+00-4.59048E-02 4.45686E+00
 -1        42 1.03358E+00-3.35850E-02 4.92128E+00
 -1        43 1.01574E+00-1.57393E-02 5.39837E+00
 -1        44 9.96925E-01 3.07464E-03 5.89125E+00
 -1        45 9.79277E-01 2.07226E-02 6.39406E+00
 -1        46 9.62505E-01 3.74952E-02 6.90814E+00
 -1        47 9.50739E-01 4.92614E-02 7.44658E+00
 -1        48 4.91204E-02 4.91204E-02 7.44661E+00
 -1        49 3.73140E-02 3.73140E-02 6.90811E+00
 -1        50 2.04963E-02 2.04963E-02 6.39406E+00
 -1        51 2.80013E-03 2.80013E-03 5.89127E+00
 -1        52-1.60596E-02-1.60596E-02 5.39838E+00
 -1        53-3.39471E-02-3.39471E-02 4.92129E+00
 -1        54-4.62884E-02-4.62884E-02 4.45686E+00
 -1        55-5.21379E-02-5.21379E-02 3.99948E+00
 -1        56-4.62787E-02-4.62787E-02 3.54213E+00
 -1        57-3.39295E-02-3.39295E-02 3.07778E+00
 -1        58-1.60371E-02-1.60371E-02 2.60081E+00
 -1        59 2.82475E-03 2.82475E-03 2.10808E+00
 -1        60 2.05205E-02 2.05205E-02 1.60545E+00
 -1        61 3.73358E-02 3.73358E-02 1.09156E+00
 -1        62 4.91390E-02 4.91390E-02 5.53309E-01
 -1        63 9.64250E-01 9.64250E-01 5.44365E-01
 -1        64 9.72525E-01 9.72525E-01 1.08305E+00
 -1        65 9.85929E-01 9.85929E-01 1.60769E+00
 -1        66 1.00049E+00 1.00049E+00 2.11456E+00
 -1        67 1.01631E+00 1.01631E+00 2.60582E+00
 -1        68 1.03117E+00 1.03117E+00 3.08097E+00
 -1        69 1.04224E+00 1.04224E+00 3.54387E+00
 -1        70 1.04748E+00 1.04748E+00 3.99956E+00
 -1        71 1.04216E+00 1.04216E+00 4.45526E+00
 -1        72 1.03101E+00 1.03101E+00 4.91822E+00
 -1        73 1.01610E+00 1.01610E+00 5.39345E+00
 -1        74 1.00025E+00 1.00025E+00 5.88483E+00
 -1        75 9.85668E-01 9.85668E-01 6.39184E+00
 -1        76 9.72256E-01 9.72256E-01 6.91662E+00
 -1        77 9.63986E-01 9.63986E-01 7.45545E+00
 -1        78 3.59715E-02 9.64028E-01 5.44394E-01
 -1        79 2.77392E-02 9.72261E-01 1.08307E+00
 -1        80 1.43837E-02 9.85616E-01 1.60770E+00
 -1        81-1.26364E-04 1.00013E+00 2.11457E+00
 -1        82-1.58856E-02 1.01589E+00 2.60583E+00
 -1        83-3.06912E-02 1.03069E+00 3.08098E+00
 -1        84-4.17212E-02 1.04172E+00 3.54387E+00
 -1        85-4.69394E-02 1.04694E+00 3.99956E+00
 -1        86-4.16184E-02 1.04162E+00 4.45526E+00
 -1        87-3.04941E-02 1.03049E+00 4.91821E+00
 -1        88-1.56218E-02 1.01562E+00 5.39345E+00
 -1        89 1.86934E-04 9.99813E-01 5.88482E+00
 -1        90 1.47234E-02 9.85277E-01 6.39183E+00
 -1        91 2.80928E-02 9.71907E-01 6.91660E+00
 -1        92 3.63200E-02 9.63680E-01 7.45542E+00
 -1        93 5.00041E-01 2.95283E-01 3.69154E-02
 -1        94 2.50945E-01 5.21632E-01 0.00000E+00
 -1        95 5.00046E-01 5.25773E-01 0.00000E+00
 -1        96 7.49107E-01 5.21650E-01 0.00000E+00
 -1        97 5.00042E-01 7.61933E-01 0.00000E+00
 -1        98 5.00019E-01 2.95247E-01 7.96306E+00
 -1        99 2.50937E-01 5.21538E-01 8.00000E+00
 -1       100 5.00036E-01 5.25681E-01 8.00000E+00
 -1       101 7.49101E-01 5.21576E-01 8.00000E+00
 -1       102 5.00044E-01 7.61881E-01 8.00000E+00
 -1       103 5.00070E-01 5.82987E-02 5.64402E-01
 -1       104 2.70882E-01 3.89398E-02 1.08910E+00
 -1       105 5.00074E-01 3.90584E-02 1.08989E+00
 -1       106 7.29175E-01 3.89577E-02 1.08909E+00
 -1       107 5.00069E-01 1.21628E-02 1.61114E+00
 -1       108 2.52162E-01-1.53062E-02 2.11548E+00
 -1       109 5.00062E-01-1.53993E-02 2.11698E+00
 -1       110 7.47828E-01-1.52738E-02 2.11549E+00
 -1       111 5.00056E-01-4.47060E-02 2.60863E+00
 -1       112 2.34360E-01-7.22444E-02 3.08263E+00
 -1       113 5.00049E-01-7.24967E-02 3.08387E+00
 -1       114 7.65559E-01-7.21960E-02 3.08263E+00
 -1       115 5.00041E-01-9.09437E-02 3.54596E+00
 -1       116 2.25037E-01-9.96362E-02 3.99948E+00
 -1       117 5.00038E-01-1.00000E-01 3.99948E+00
 -1       118 7.74834E-01-9.95776E-02 3.99948E+00
 -1       119 5.00036E-01-9.09519E-02 4.45302E+00
 -1       120 2.34351E-01-7.22620E-02 4.91644E+00
 -1       121 5.00040E-01-7.25111E-02 4.91519E+00
 -1       122 7.65532E-01-7.22068E-02 4.91644E+00
 -1       123 5.00043E-01-4.47213E-02 5.39055E+00
 -1       124 2.52147E-01-1.53253E-02 5.88386E+00
 -1       125 5.00047E-01-1.54130E-02 5.88237E+00
 -1       126 7.47783E-01-1.52820E-02 5.88386E+00
 -1       127 5.00052E-01 1.21547E-02 6.38837E+00
 -1       128 2.70870E-01 3.89328E-02 6.91060E+00
 -1       129 5.00057E-01 3.90580E-02 6.90981E+00
 -1       130 7.29117E-01 3.89637E-02 6.91060E+00
 -1       131 5.00049E-01 5.83068E-02 7.43547E+00
 -1       132 9.39505E-01 5.20167E-01 5.48977E-01
 -1       133 9.48506E-01 2.75234E-01 1.08894E+00
 -1       134 9.48407E-01 5.10531E-01 1.09507E+00
 -1       135 9.48664E-01 7.42628E-01 1.08865E+00
 -1       136 9.62568E-01 5.06383E-01 1.61749E+00
 -1       137 9.78040E-01 2.51835E-01 2.11972E+00
 -1       138 9.78000E-01 5.02711E-01 2.12297E+00
 -1       139 9.78203E-01 7.52773E-01 2.12194E+00
 -1       140 9.94563E-01 5.00018E-01 2.61459E+00
 -1       141 1.01041E+00 2.29662E-01 3.08522E+00
 -1       142 1.01027E+00 4.97602E-01 3.08862E+00
 -1       143 1.01038E+00 7.66375E-01 3.08704E+00
 -1       144 1.02172E+00 4.96252E-01 3.54864E+00
 -1       145 1.02737E+00 2.18886E-01 3.99949E+00
 -1       146 1.02721E+00 4.95781E-01 3.99951E+00
 -1       147 1.02726E+00 7.74207E-01 3.99953E+00
 -1       148 1.02167E+00 4.96178E-01 4.45040E+00
 -1       149 1.01032E+00 2.29605E-01 4.91387E+00
 -1       150 1.01018E+00 4.97462E-01 4.91049E+00
 -1       151 1.01029E+00 7.66217E-01 4.91211E+00
 -1       152 9.94442E-01 4.99831E-01 5.38463E+00
 -1       153 9.77895E-01 2.51749E-01 5.87962E+00
 -1       154 9.77853E-01 5.02491E-01 5.87639E+00
 -1       155 9.78056E-01 7.52524E-01 5.87744E+00
 -1       156 9.62408E-01 5.06148E-01 6.38202E+00
 -1       157 9.48339E-01 2.75147E-01 6.91076E+00
 -1       158 9.48239E-01 5.10285E-01 6.90461E+00
 -1       159 9.48496E-01 7.42349E-01 6.91103E+00
 -1       160 9.39338E-01 5.20003E-01 7.45091E+00
 -1       161 5.00072E-01 9.67766E-01 5.35946E-01
 -1       162 7.34392E-01 9.80154E-01 1.08656E+00
 -1       163 5.00099E-01 9.80073E-01 1.08931E+00
 -1       164 2.65839E-01 9.80128E-01 1.08657E+00
 -1       165 5.00096E-01 1.00017E+00 1.61530E+00
 -1       166 7.49245E-01 1.02152E+00 2.12038E+00
 -1       167 5.00098E-01 1.02162E+00 2.12183E+00
 -1       168 2.51034E-01 1.02148E+00 2.12038E+00
 -1       169 5.00099E-01 1.04498E+00 2.61297E+00
 -1       170 7.64541E-01 1.06665E+00 3.08580E+00
 -1       171 5.00098E-01 1.06688E+00 3.08714E+00
 -1       172 2.35785E-01 1.06660E+00 3.08580E+00
 -1       173 5.00099E-01 1.08290E+00 3.54772E+00
 -1       174 7.72887E-01 1.09040E+00 3.99955E+00
 -1       175 5.00096E-01 1.09072E+00 3.99955E+00
 -1       176 2.27466E-01 1.09034E+00 3.99955E+00
 -1       177 5.00097E-01 1.08275E+00 4.45139E+00
 -1       178 7.64466E-01 1.06635E+00 4.91337E+00
 -1       179 5.00095E-01 1.06657E+00 4.91203E+00
 -1       180 2.35877E-01 1.06629E+00 4.91337E+00
 -1       181 5.00095E-01 1.04457E+00 5.38629E+00
 -1       182 7.49126E-01 1.02104E+00 5.87901E+00
 -1       183 5.00094E-01 1.02113E+00 5.87755E+00
 -1       184 2.51181E-01 1.02099E+00 5.87901E+00
 -1       185 5.00090E-01 9.99652E-01 6.38423E+00
 -1       186 7.34260E-01 9.79624E-01 6.91311E+00
 -1       187 5.00095E-01 9.79534E-01 6.91034E+00
 -1       188 2.66002E-01 9.79585E-01 6.91310E+00
 -1       189 5.00071E-01 9.67239E-01 7.46391E+00
 -1       190 6.06755E-02 5.20148E-01 5.48987E-01
 -1       191 5.15410E-02 7.42496E-01 1.08867E+00
 -1       192 5.17768E-02 5.10509E-01 1.09510E+00
 -1       193 5.16543E-02 2.75187E-01 1.08894E+00
 -1       194 3.76132E-02 5.06357E-01 1.61749E+00
 -1       195 2.20098E-02 7.52587E-01 2.12194E+00
 -1       196 2.21769E-02 5.02675E-01 2.12297E+00
 -1       197 2.20996E-02 2.51733E-01 2.11972E+00
 -1       198 5.60695E-03 4.99976E-01 2.61459E+00
 -1       199-1.01674E-02 7.66133E-01 3.08703E+00
 -1       200-1.01109E-02 4.97553E-01 3.08862E+00
 -1       201-1.03003E-02 2.29496E-01 3.08521E+00
 -1       202-2.15623E-02 4.96194E-01 3.54864E+00
 -1       203-2.70468E-02 7.73930E-01 3.99953E+00
 -1       204-2.70624E-02 4.95723E-01 3.99950E+00
 -1       205-2.72801E-02 2.18681E-01 3.99949E+00
 -1       206-2.15224E-02 4.96117E-01 4.45039E+00
 -1       207-1.00831E-02 7.65951E-01 4.91211E+00
 -1       208-1.00338E-02 4.97407E-01 4.91049E+00
 -1       209-1.02303E-02 2.29411E-01 4.91387E+00
 -1       210 5.71043E-03 4.99779E-01 5.38463E+00
 -1       211 2.21452E-02 7.52300E-01 5.87743E+00
 -1       212 2.23006E-02 5.02443E-01 5.87639E+00
 -1       213 2.22117E-02 2.51599E-01 5.87962E+00
 -1       214 3.77481E-02 5.06109E-01 6.38202E+00
 -1       215 5.16962E-02 7.42172E-01 6.91101E+00
 -1       216 5.19180E-02 5.10249E-01 6.90458E+00
 -1       217 5.17818E-02 2.75046E-01 6.91076E+00
 -1       218 6.08149E-02 5.19968E-01 7.45091E+00
 -1       219 5.00089E-01 5.24213E-01 5.47094E-01
 -1       220 5.00070E-01 2.74663E-01 1.09856E+00
 -1       221 2.74685E-01 5.10266E-01 1.09866E+00
 -1       222 5.00104E-01 5.12175E-01 1.10085E+00
 -1       223 7.25510E-01 5.10315E-01 1.09864E+00
 -1       224 5.00118E-01 7.49311E-01 1.09483E+00
 -1       225 5.00098E-01 5.07575E-01 1.62383E+00
 -1       226 5.00047E-01 2.42689E-01 2.12797E+00
 -1       227 2.62336E-01 5.03014E-01 2.12983E+00
 -1       228 5.00095E-01 5.03321E-01 2.13149E+00
 -1       229 7.37850E-01 5.03088E-01 2.12983E+00
 -1       230 5.00121E-01 7.63350E-01 2.13065E+00
 -1       231 5.00091E-01 4.99958E-01 2.62292E+00
 -1       232 5.00025E-01 2.11814E-01 3.09287E+00
 -1       233 2.47648E-01 4.97377E-01 3.09410E+00
 -1       234 5.00087E-01 4.97154E-01 3.09542E+00
 -1       235 7.52522E-01 4.97483E-01 3.09410E+00
 -1       236 5.00131E-01 7.82588E-01 3.09424E+00
 -1       237 5.00083E-01 4.95558E-01 3.55264E+00
 -1       238 5.00008E-01 1.97163E-01 3.99948E+00
 -1       239 2.40014E-01 4.95491E-01 3.99950E+00
 -1       240 5.00080E-01 4.95037E-01 3.99949E+00
 -1       241 7.60141E-01 4.95617E-01 3.99950E+00
 -1       242 5.00134E-01 7.92962E-01 3.99951E+00
 -1       243 5.00079E-01 4.95468E-01 4.44637E+00
 -1       244 5.00012E-01 2.11719E-01 4.90620E+00
 -1       245 2.47678E-01 4.97219E-01 4.90499E+00
 -1       246 5.00080E-01 4.96985E-01 4.90366E+00
 -1       247 7.52478E-01 4.97339E-01 4.90499E+00
 -1       248 5.00131E-01 7.82352E-01 4.90488E+00
 -1       249 5.00082E-01 4.99731E-01 5.37629E+00
 -1       250 5.00026E-01 2.42542E-01 5.87137E+00
 -1       251 2.62385E-01 5.02766E-01 5.86952E+00
 -1       252 5.00083E-01 5.03056E-01 5.86786E+00
 -1       253 7.37778E-01 5.02862E-01 5.86952E+00
 -1       254 5.00122E-01 7.62973E-01 5.86871E+00
 -1       255 5.00084E-01 5.07289E-01 6.37567E+00
 -1       256 5.00043E-01 2.74508E-01 6.90112E+00
 -1       257 2.74739E-01 5.09978E-01 6.90102E+00
 -1       258 5.00089E-01 5.11873E-01 6.89882E+00
 -1       259 7.25430E-01 5.10057E-01 6.90104E+00
 -1       260 5.00121E-01 7.48895E-01 6.90485E+00
 -1       261 5.00078E-01 5.23989E-01 7.45281E+00
 -3
    3C                            32                                     1
 -1         1    4    0    1
 -2         1        10        95        19        61       105       222       192         9        93
 -2        94        20        62       103       219       190       104       220       221       193
 -1         2    4    0    1
 -2        10         2        13        95       105        34       134       222        11        12
 -2        96        93       103        33       132       219       106       133       223       220
 -1         3    4    0    1
 -2        19        95        16         4       192       222       163        79        94        97
 -2        17        18       190       219       161        78       221       224       164       191
 -1         4    4    0    1
 -2        95        13         3        16       222       134        64       163        96        14
 -2        15        97       219       132        63       161       223       135       162       224
 -1         5    4    0    1
 -2        61       105       222       192        59       109       228       196       104       220
 -2       221       193        60       107       225       194       108       226       227       197
 -1         6    4    0    1
 -2       105        34       134       222       109        36       138       228       106       133
 -2       223       220       107        35       136       225       110       137       229       226
 -1         7    4    0    1
 -2       192       222       163        79       196       228       167        81       221       224
 -2       164       191       194       225       165        80       227       230       168       195
 -1         8    4    0    1
 -2       222       134        64       163       228       138        66       167       223       135
 -2       162       224       225       136        65       165       229       139       166       230
 -1         9    4    0    1
 -2        59       109       228       196        57       113       234       200       108       226
 -2       227       197        58       111       231       198       112       232       233       201
 -1        10    4    0    1
 -2       109        36       138       228       113        38       142       234       110       137
 -2       229       226       111        37       140       231       114       141       235       232
 -1        11    4    0    1
 -2       196       228       167        81       200       234       171        83       227       230
 -2       168       195       198       231       169        82       233       236       172       199
 -1        12    4    0    1
 -2       228       138        66       167       234       142        68       171       229       139
 -2       166       230       231       140        67       169       235       143       170       236
 -1        13    4    0    1
 -2        57       113       234       200        55       117       240       204       112       232
 -2       233       201        56       115       237       202       116       238       239       205
 -1        14    4    0    1
 -2       113        38       142       234       117        40       146       240       114       141
 -2       235       232       115        39       144       237       118       145       241       238
 -1        15    4    0    1
 -2       200       234       171        83       204       240       175        85       233       236
 -2       172       199       202       237       173        84       239       242       176       203
 -1        16    4    0    1
 -2       234       142        68       171       240       146        70       175       235       143
 -2       170       236       237       144        69       173       241       147       174       242
 -1        17    4    0    1
 -2        55       117       240       204        53       121       246       208       116       238
 -2       239       205        54       119       243       206       120       244       245       209
 -1        18    4    0    1
 -2       117        40       146       240       121        42       150       246       118       145
 -2       241       238       119        41       148       243       122       149       247       244
 -1        19    4    0    1
 -2       204       240       175        85       208       246       179        87       239       242
 -2       176       203       206       243       177        86       245       248       180       207
 -1        20    4    0    1
 -2       240       146        70       175       246       150        72       179       241       147
 -2       174       242       243       148        71       177       247       151       178       248
 -1        21    4    0    1
 -2        53       121       246       208        51       125       252       212       120       244
 -2       245       209        52       123       249       210       124       250       251       213
 -1        22    4    0    1
 -2       121        42       150       246       125        44       154       252       122       149
 -2       247       244       123        43       152       249       126       153       253       250
 -1        23    4    0    1
 -2       208       246       179        87       212       252       183        89       245       248
 -2       180       207       210       249       181        88       251       254       184       211
 -1        24    4    0    1
 -2       246       150        72       179       252       154        74       183       247       151
 -2       178       248       249       152        73       181       253       155       182       254
 -1        25    4    0    1
 -2        51       125       252       212        49       129       258       216       124       250
 -2       251       213        50       127       255       214       128       256       257       217
 -1        26    4    0    1
 -2       125        44       154       252       129        46       158       258       126       153
 -2       253       250       127        45       156       255       130       157       259       256
 -1        27    4    0    1
 -2       212       252       183        89       216       258       187        91       251       254
 -2       184       211       214       255       185        90       257       260       188       215
 -1        28    4    0    1
 -2       252       154        74       183       258       158        76       187       253       155
 -2       182       254       255       156        75       185       259       159       186       260
 -1        29    4    0    1
 -2        49       129       258       216         5        22       100        31       128       256
 -2       257       217        48       131       261       218        21        98        99        32
 -1        30    4    0    1
 -2       129        46       158       258        22         6        25       100       130       157
 -2       259       256       131        47       160       261        23        24       101        98
 -1        31    4    0    1
 -2       216       258       187        91        31       100        28         8       257       260
 -2       188       215       218       261       189        92        99       102        29        30
 -1        32    4    0    1
 -2       258       158        76       187       100        25         7        28       259       159
 -2       186       260       261       160        77       189       101        26        27       102
 -3
    1PSTEP                         1           1           1          
  100CL  101 1.000000000         261                     0    1           1
 -4  DISP        4    1
 -5  D1          1    2    1    0
 -5  D2          1    2    2    0
 -5  D3          1    2    3    0
 -5  ALL         1    2    0    0    1ALL
 -1         1-9.98056E-05 4.46665E-04 1.91665E-03
 -1         2-1.23675E-04 4.46896E-04 1.91708E-03
 -1         3 0.00000E+00 0.00000E+00 0.00000E+00
 -1         4-2.24017E-04 0.00000E+00 0.00000E+00
 -1         5-1.00027E-04 4.46515E-04 2.05925E-04
 -1         6-1.23889E-04 4.46892E-04 2.05440E-04
 -1         7 0.00000E+00 0.00000E+00 2.12326E-03
 -1         8-2.24102E-04 0.00000E+00 2.12397E-03
 -1         9-1.07764E-04 5.38158E-04 1.87954E-03
 -1        10-1.11765E-04 5.38878E-04 1.87846E-03
 -1        11-1.15761E-04 5.38245E-04 1.87978E-03
 -1        12-1.06733E-04 5.18837E-04 1.47049E-03
 -1        13-1.08672E-04 4.45604E-04 1.05566E-03
 -1        14-1.16803E-04 2.46638E-04 5.92466E-04
 -1        15-5.82032E-05 3.32978E-04 7.89716E-05
 -1        16-1.11942E-04 4.89009E-04 1.68728E-04
 -1        17-1.65748E-04 3.32995E-04 7.88732E-05
 -1        18-1.07038E-04 2.46514E-04 5.92078E-04
 -1        19-1.14962E-04 4.45401E-04 1.05513E-03
 -1        20-1.16866E-04 5.18826E-04 1.47001E-03
 -1        21-1.07987E-04 5.38326E-04 2.42924E-04
 -1        22-1.11990E-04 5.39043E-04 2.43980E-04
 -1        23-1.15988E-04 5.38398E-04 2.42636E-04
 -1        24-1.06934E-04 5.19082E-04 6.52067E-04
 -1        25-1.08847E-04 4.45605E-04 1.06698E-03
 -1        26-1.16899E-04 2.46604E-04 1.53052E-03
 -1        27-5.82850E-05 3.33000E-04 2.04438E-03
 -1        28-1.12064E-04 4.89067E-04 1.95473E-03
 -1        29-1.65844E-04 3.32970E-04 2.04474E-03
 -1        30-1.07172E-04 2.46495E-04 1.53129E-03
 -1        31-1.15142E-04 4.45432E-04 1.06765E-03
 -1        32-1.17077E-04 5.19060E-04 6.52643E-04
 -1        33-1.05014E-04 1.47174E-03 1.87520E-03
 -1        34-8.33494E-05 2.44891E-03 1.81790E-03
 -1        35-7.40721E-05 3.28648E-03 1.72222E-03
 -1        36-7.23787E-05 3.92804E-03 1.61489E-03
 -1        37-6.86579E-05 4.46350E-03 1.48522E-03
 -1        38-6.41570E-05 4.78950E-03 1.35226E-03
 -1        39-5.88230E-05 5.06741E-03 1.21015E-03
 -1        40-6.48772E-05 5.07698E-03 1.06180E-03
 -1        41-5.89073E-05 5.06821E-03 9.13419E-04
 -1        42-6.43258E-05 4.79099E-03 7.71188E-04
 -1        43-6.88962E-05 4.46551E-03 6.38079E-04
 -1        44-7.26768E-05 3.93026E-03 5.08194E-04
 -1        45-7.44019E-05 3.28863E-03 4.00666E-04
 -1        46-8.36814E-05 2.45061E-03 3.04788E-04
 -1        47-1.05308E-04 1.47258E-03 2.47333E-04
 -1        48-1.19407E-04 1.47241E-03 2.47743E-04
 -1        49-1.41824E-04 2.45060E-03 3.05131E-04
 -1        50-1.51776E-04 3.28857E-03 4.00928E-04
 -1        51-1.54045E-04 3.93020E-03 5.08370E-04
 -1        52-1.58252E-04 4.46544E-03 6.38184E-04
 -1        53-1.63104E-04 4.79096E-03 7.71204E-04
 -1        54-1.68629E-04 5.06818E-03 9.13373E-04
 -1        55-1.62638E-04 5.07693E-03 1.06169E-03
 -1        56-1.68516E-04 5.06736E-03 1.20997E-03
 -1        57-1.62888E-04 4.78944E-03 1.35202E-03
 -1        58-1.57943E-04 4.46340E-03 1.48490E-03
 -1        59-1.53674E-04 3.92794E-03 1.61452E-03
 -1        60-1.51364E-04 3.28637E-03 1.72179E-03
 -1        61-1.41419E-04 2.44880E-03 1.81745E-03
 -1        62-1.19091E-04 1.47156E-03 1.87471E-03
 -1        63-8.73989E-05 1.49442E-03 2.07320E-04
 -1        64-1.75824E-04 2.38146E-03 2.87619E-04
 -1        65-1.47233E-04 3.30795E-03 3.82791E-04
 -1        66-1.59251E-04 3.91478E-03 4.94342E-04
 -1        67-1.56471E-04 4.46857E-03 6.22542E-04
 -1        68-1.69028E-04 4.81362E-03 7.63297E-04
 -1        69-1.68320E-04 5.04735E-03 9.07530E-04
 -1        70-1.73569E-04 5.11136E-03 1.06084E-03
 -1        71-1.68431E-04 5.04811E-03 1.21420E-03
 -1        72-1.69247E-04 4.81503E-03 1.35853E-03
 -1        73-1.56763E-04 4.47051E-03 1.49945E-03
 -1        74-1.59616E-04 3.91691E-03 1.62785E-03
 -1        75-1.47615E-04 3.31009E-03 1.73963E-03
 -1        76-1.76198E-04 2.38306E-03 1.83503E-03
 -1        77-8.76740E-05 1.49545E-03 1.91539E-03
 -1        78-1.36976E-04 1.49426E-03 2.07293E-04
 -1        79-4.93084E-05 2.38138E-03 2.87444E-04
 -1        80-7.84721E-05 3.30784E-03 3.82623E-04
 -1        81-6.70567E-05 3.91468E-03 4.94203E-04
 -1        82-7.03564E-05 4.46846E-03 6.22391E-04
 -1        83-5.82323E-05 4.81348E-03 7.63151E-04
 -1        84-5.92404E-05 5.04722E-03 9.07393E-04
 -1        85-5.41554E-05 5.11122E-03 1.06073E-03
 -1        86-5.93181E-05 5.04798E-03 1.21411E-03
 -1        87-5.83746E-05 4.81488E-03 1.35846E-03
 -1        88-7.05833E-05 4.47040E-03 1.49941E-03
 -1        89-6.73034E-05 3.91680E-03 1.62783E-03
 -1        90-7.87823E-05 3.30998E-03 1.73967E-03
 -1        91-4.95737E-05 2.38290E-03 1.83511E-03
 -1        92-1.37247E-04 1.49538E-03 1.91549E-03
 -1        93-1.11805E-04 4.96980E-04 1.43896E-03
 -1        94-1.06272E-04 4.14094E-04 1.02672E-03
 -1        95-1.11838E-04 4.25350E-04 1.01217E-03
 -1        96-1.17386E-04 4.14179E-04 1.02696E-03
 -1        97-1.11900E-04 4.52669E-04 5.78512E-04
 -1        98-1.12002E-04 4.97114E-04 6.83629E-04
 -1        99-1.06446E-04 4.14134E-04 1.09606E-03
 -1       100-1.12003E-04 4.25386E-04 1.11057E-03
 -1       101-1.17554E-04 4.14211E-04 1.09576E-03
 -1       102-1.12038E-04 4.52723E-04 1.54454E-03
 -1       103-1.12058E-04 1.48177E-03 1.85730E-03
 -1       104-1.26274E-04 2.43958E-03 1.81945E-03
 -1       105-1.12378E-04 2.44934E-03 1.81795E-03
 -1       106-9.84838E-05 2.43963E-03 1.81970E-03
 -1       107-1.12707E-04 3.26345E-03 1.73969E-03
 -1       108-1.34298E-04 3.93307E-03 1.63524E-03
 -1       109-1.13022E-04 3.94614E-03 1.63211E-03
 -1       110-9.17482E-05 3.93312E-03 1.63548E-03
 -1       111-1.13286E-04 4.42819E-03 1.51240E-03
 -1       112-1.38997E-04 4.81099E-03 1.37886E-03
 -1       113-1.13503E-04 4.82260E-03 1.37814E-03
 -1       114-8.80187E-05 4.81102E-03 1.37903E-03
 -1       115-1.13655E-04 5.00663E-03 1.22427E-03
 -1       116-1.43952E-04 5.13722E-03 1.06176E-03
 -1       117-1.13729E-04 5.29803E-03 1.06178E-03
 -1       118-8.35353E-05 5.13724E-03 1.06181E-03
 -1       119-1.13753E-04 5.00741E-03 8.99245E-04
 -1       120-1.39201E-04 4.81249E-03 7.44479E-04
 -1       121-1.13693E-04 4.82411E-03 7.45242E-04
 -1       122-8.81957E-05 4.81250E-03 7.44407E-04
 -1       123-1.13558E-04 4.43017E-03 6.10785E-04
 -1       124-1.34652E-04 3.93532E-03 4.87695E-04
 -1       125-1.13355E-04 3.94838E-03 4.90855E-04
 -1       126-9.20611E-05 3.93534E-03 4.87506E-04
 -1       127-1.13077E-04 3.26559E-03 3.83064E-04
 -1       128-1.26662E-04 2.44129E-03 3.03121E-04
 -1       129-1.12745E-04 2.45103E-03 3.04608E-04
 -1       130-9.88315E-05 2.44131E-03 3.02860E-04
 -1       131-1.12367E-04 1.48267E-03 2.65157E-04
 -1       132-1.13483E-04 1.45556E-03 1.02836E-03
 -1       133-1.00106E-04 2.47021E-03 1.42025E-03
 -1       134-1.11293E-04 2.50244E-03 1.03596E-03
 -1       135-1.26195E-04 2.43786E-03 6.52082E-04
 -1       136-1.14992E-04 3.29750E-03 1.05353E-03
 -1       137-9.13035E-05 3.97389E-03 1.32915E-03
 -1       138-1.10498E-04 3.99746E-03 1.04848E-03
 -1       139-1.38561E-04 3.96632E-03 7.77639E-04
 -1       140-1.12618E-04 4.48818E-03 1.05688E-03
 -1       141-8.92591E-05 4.83154E-03 1.20012E-03
 -1       142-1.10958E-04 4.86622E-03 1.05303E-03
 -1       143-1.39038E-04 4.84659E-03 9.10600E-04
 -1       144-1.13550E-04 5.05836E-03 1.05689E-03
 -1       145-7.87750E-05 5.12951E-03 1.06156E-03
 -1       146-1.10363E-04 5.14790E-03 1.06133E-03
 -1       147-1.36252E-04 5.13535E-03 1.06109E-03
 -1       148-1.13645E-04 5.05914E-03 1.06575E-03
 -1       149-8.94347E-05 4.83303E-03 9.22905E-04
 -1       150-1.11140E-04 4.86771E-03 1.06957E-03
 -1       151-1.39237E-04 4.84805E-03 1.21161E-03
 -1       152-1.12879E-04 4.49016E-03 1.06566E-03
 -1       153-9.16126E-05 3.97613E-03 7.93630E-04
 -1       154-1.10816E-04 3.99970E-03 1.07402E-03
 -1       155-1.38901E-04 3.96853E-03 1.34468E-03
 -1       156-1.15336E-04 3.29965E-03 1.06891E-03
 -1       157-1.00440E-04 2.47189E-03 7.02287E-04
 -1       158-1.11632E-04 2.50418E-03 1.08645E-03
 -1       159-1.26555E-04 2.43953E-03 1.47039E-03
 -1       160-1.13766E-04 1.45641E-03 1.09416E-03
 -1       161-1.12197E-04 1.40100E-03 2.03890E-04