    1C
    1UModel: beam     Date: 10-Mar-1998                                 
    1UUSER                                                              
    1UDATE              18.may.2024                                     
    1UTIME              21:36:55                                        
    1UHOST                                                              
    1UPGM               CalculiX                                        
    1UVERSION           Version DEVELOPMENT                             
    1UCOMPILETIME       Fri May 17 16:12:00 CEST 2024                    
    1UDIR                                                               
    1UDBN                                                               
    1UMAT    1EL                                                        
    2C                           261                                     1
 -1         1 6.94726E-02 1.62014E-02 1.01306E-02
 -1         2 9.30603E-01 1.61964E-02 1.01003E-02
 -1         3 1.00000E+00 1.00000E+00 0.00000E+00
 -1         4 0.00000E+00 1.00000E+00 0.00000E+00
 -1         5 6.95071E-02 1.62582E-02 7.98994E+00
 -1         6 9.30536E-01 1.62690E-02 7.98993E+00
 -1         7 1.00000E+00 1.00000E+00 8.00000E+00
 -1         8 0.00000E+00 1.00000E+00 8.00000E+00
 -1         9 2.83450E-01 2.85530E-02 2.85530E-02
 -1        10 5.00041E-01 2.82928E-02 2.82928E-02
 -1        11 7.16630E-01 2.85528E-02 2.85528E-02
 -1        12 9.65142E-01 2.60085E-01 3.48578E-02
 -1        13 1.00000E+00 5.01606E-01 0.00000E+00
 -1        14 1.00000E+00 7.49854E-01 0.00000E+00
 -1        15 7.50873E-01 1.00000E+00 0.00000E+00
 -1        16 5.00021E-01 1.00000E+00 0.00000E+00
 -1        17 2.49151E-01 1.00000E+00 0.00000E+00
 -1        18 0.00000E+00 7.49842E-01 0.00000E+00
 -1        19 0.00000E+00 5.01587E-01 0.00000E+00
 -1        20 3.49303E-02 2.60078E-01 3.49303E-02
 -1        21 2.83461E-01 2.85620E-02 7.97144E+00
 -1        22 5.00030E-01 2.83030E-02 7.97170E+00
 -1        23 7.16592E-01 2.85644E-02 7.97144E+00
 -1        24 9.65088E-01 2.60084E-01 7.96509E+00
 -1        25 1.00000E+00 5.01550E-01 8.00000E+00
 -1        26 1.00000E+00 7.49818E-01 8.00000E+00
 -1        27 7.50872E-01 1.00000E+00 8.00000E+00
 -1        28 5.00017E-01 1.00000E+00 8.00000E+00
 -1        29 2.49148E-01 1.00000E+00 8.00000E+00
 -1        30 0.00000E+00 7.49808E-01 8.00000E+00
 -1        31 0.00000E+00 5.01532E-01 8.00000E+00
 -1        32 3.49647E-02 2.60070E-01 7.96504E+00
 -1        33 9.63904E-01 3.60961E-02 5.34166E-01
 -1        34 9.74962E-01 2.50375E-02 1.06637E+00
 -1        35 9.86987E-01 1.30130E-02 1.57861E+00
 -1        36 1.00238E+00-2.37919E-03 2.08140E+00
 -1        37 1.01771E+00-1.77098E-02 2.57658E+00
 -1        38 1.03228E+00-3.22792E-02 3.05910E+00
 -1        39 1.04433E+00-4.43320E-02 3.53219E+00
 -1        40 1.04723E+00-4.72267E-02 3.99968E+00
 -1        41 1.04432E+00-4.43236E-02 4.46719E+00
 -1        42 1.03226E+00-3.22624E-02 4.94033E+00
 -1        43 1.01769E+00-1.76850E-02 5.42292E+00
 -1        44 1.00235E+00-2.34821E-03 5.91820E+00
 -1        45 9.86950E-01 1.30504E-02 6.42108E+00
 -1        46 9.74921E-01 2.50792E-02 6.93343E+00
 -1        47 9.63858E-01 3.61423E-02 7.46577E+00
 -1        48 3.61440E-02 3.61440E-02 7.46576E+00
 -1        49 2.50659E-02 2.50659E-02 6.93342E+00
 -1        50 1.30229E-02 1.30229E-02 6.42109E+00
 -1        51-2.39197E-03-2.39197E-03 5.91821E+00
 -1        52-1.77454E-02-1.77454E-02 5.42293E+00
 -1        53-3.23347E-02-3.23347E-02 4.94034E+00
 -1        54-4.44068E-02-4.44068E-02 4.46719E+00
 -1        55-4.73056E-02-4.73056E-02 3.99968E+00
 -1        56-4.44032E-02-4.44032E-02 3.53218E+00
 -1        57-3.23296E-02-3.23296E-02 3.05908E+00
 -1        58-1.77392E-02-1.77392E-02 2.57657E+00
 -1        59-2.38729E-03-2.38729E-03 2.08138E+00
 -1        60 1.30258E-02 1.30258E-02 1.57861E+00
 -1        61 2.50653E-02 2.50653E-02 1.06638E+00
 -1        62 3.61399E-02 3.61399E-02 5.34181E-01
 -1        63 9.63471E-01 9.63471E-01 5.33578E-01
 -1        64 9.72183E-01 9.72183E-01 1.06129E+00
 -1        65 9.81869E-01 9.81869E-01 1.58102E+00
 -1        66 9.94606E-01 9.94606E-01 2.08706E+00
 -1        67 1.00727E+00 1.00727E+00 2.58121E+00
 -1        68 1.01929E+00 1.01929E+00 3.06242E+00
 -1        69 1.02941E+00 1.02941E+00 3.53407E+00
 -1        70 1.03192E+00 1.03192E+00 3.99973E+00
 -1        71 1.02935E+00 1.02935E+00 4.46540E+00
 -1        72 1.01918E+00 1.01918E+00 4.93709E+00
 -1        73 1.00711E+00 1.00711E+00 5.41834E+00
 -1        74 9.94430E-01 9.94430E-01 5.91256E+00
 -1        75 9.81674E-01 9.81674E-01 6.41869E+00
 -1        76 9.71984E-01 9.71984E-01 6.93851E+00
 -1        77 9.63272E-01 9.63272E-01 7.46630E+00
 -1        78 3.66265E-02 9.63373E-01 5.33595E-01
 -1        79 2.79267E-02 9.72073E-01 1.06130E+00
 -1        80 1.82511E-02 9.81749E-01 1.58102E+00
 -1        81 5.52678E-03 9.94473E-01 2.08706E+00
 -1        82-7.12077E-03 1.00712E+00 2.58121E+00
 -1        83-1.91297E-02 1.01913E+00 3.06241E+00
 -1        84-2.92446E-02 1.02924E+00 3.53407E+00
 -1        85-3.17505E-02 1.03175E+00 3.99973E+00
 -1        86-2.91831E-02 1.02918E+00 4.46539E+00
 -1        87-1.90151E-02 1.01902E+00 4.93708E+00
 -1        88-6.96226E-03 1.00696E+00 5.41834E+00
 -1        89 5.71066E-03 9.94289E-01 5.91256E+00
 -1        90 1.84557E-02 9.81544E-01 6.41869E+00
 -1        91 2.81367E-02 9.71863E-01 6.93850E+00
 -1        92 3.68387E-02 9.63161E-01 7.46629E+00
 -1        93 5.00040E-01 2.72712E-01 1.62552E-02
 -1        94 2.51261E-01 5.09195E-01 0.00000E+00
 -1        95 5.00037E-01 5.12120E-01 0.00000E+00
 -1        96 7.48781E-01 5.09198E-01 0.00000E+00
 -1        97 5.00028E-01 7.55649E-01 0.00000E+00
 -1        98 5.00027E-01 2.72686E-01 7.98374E+00
 -1        99 2.51256E-01 5.09134E-01 8.00000E+00
 -1       100 5.00028E-01 5.12055E-01 8.00000E+00
 -1       101 7.48776E-01 5.09143E-01 8.00000E+00
 -1       102 5.00025E-01 7.55612E-01 8.00000E+00
 -1       103 5.00059E-01 3.02596E-02 5.42483E-01
 -1       104 2.64871E-01 1.31865E-02 1.06388E+00
 -1       105 5.00060E-01 1.28527E-02 1.06292E+00
 -1       106 7.35215E-01 1.31918E-02 1.06387E+00
 -1       107 5.00057E-01-6.55806E-03 1.58206E+00
 -1       108 2.50102E-01-3.01607E-02 2.08698E+00
 -1       109 5.00051E-01-3.02171E-02 2.08826E+00
 -1       110 7.49953E-01-3.01497E-02 2.08699E+00
 -1       111 5.00046E-01-5.44085E-02 2.58223E+00
 -1       112 2.35914E-01-7.70199E-02 3.06293E+00
 -1       113 5.00040E-01-7.66067E-02 3.06381E+00
 -1       114 7.64110E-01-7.70024E-02 3.06294E+00
 -1       115 5.00034E-01-9.55870E-02 3.53487E+00
 -1       116 2.28435E-01-1.00000E-01 3.99968E+00
 -1       117 5.00031E-01-9.93770E-02 3.99968E+00
 -1       118 7.71565E-01-9.99784E-02 3.99968E+00
 -1       119 5.00029E-01-9.55939E-02 4.46450E+00
 -1       120 2.35908E-01-7.70321E-02 4.93648E+00
 -1       121 5.00030E-01-7.66175E-02 4.93561E+00
 -1       122 7.64095E-01-7.70121E-02 4.93648E+00
 -1       123 5.00033E-01-5.44209E-02 5.41726E+00
 -1       124 2.50094E-01-3.01736E-02 5.91261E+00
 -1       125 5.00036E-01-3.02279E-02 5.91133E+00
 -1       126 7.49928E-01-3.01586E-02 5.91260E+00
 -1       127 5.00041E-01-6.56517E-03 6.41763E+00
 -1       128 2.64866E-01 1.31828E-02 6.93594E+00
 -1       129 5.00044E-01 1.28513E-02 6.93689E+00
 -1       130 7.35182E-01 1.31927E-02 6.93594E+00
 -1       131 5.00043E-01 3.02648E-02 7.45744E+00
 -1       132 9.46060E-01 5.06446E-01 5.34050E-01
 -1       133 9.53877E-01 2.61607E-01 1.06478E+00
 -1       134 9.54120E-01 4.98786E-01 1.07137E+00
 -1       135 9.53739E-01 7.36174E-01 1.06641E+00
 -1       136 9.61664E-01 4.95757E-01 1.58891E+00
 -1       137 9.73100E-01 2.43624E-01 2.09131E+00
 -1       138 9.73165E-01 4.92822E-01 2.09418E+00
 -1       139 9.72893E-01 7.44663E-01 2.09324E+00
 -1       140 9.83601E-01 4.90523E-01 2.58842E+00
 -1       141 9.94347E-01 2.25120E-01 3.06584E+00
 -1       142 9.94135E-01 4.88263E-01 3.06906E+00
 -1       143 9.94062E-01 7.55345E-01 3.06767E+00
 -1       144 1.00287E+00 4.86614E-01 3.53788E+00
 -1       145 1.00530E+00 2.15830E-01 3.99969E+00
 -1       146 1.00493E+00 4.86021E-01 3.99969E+00
 -1       147 1.00493E+00 7.61028E-01 3.99971E+00
 -1       148 1.00285E+00 4.86563E-01 4.46152E+00
 -1       149 9.94299E-01 2.25077E-01 4.93360E+00
 -1       150 9.94087E-01 4.88168E-01 4.93038E+00
 -1       151 9.94013E-01 7.55235E-01 4.93181E+00
 -1       152 9.83533E-01 4.90395E-01 5.41109E+00
 -1       153 9.73020E-01 2.43557E-01 5.90828E+00
 -1       154 9.73085E-01 4.92671E-01 5.90542E+00
 -1       155 9.72812E-01 7.44488E-01 5.90637E+00
 -1       156 9.61573E-01 4.95596E-01 6.41078E+00
 -1       157 9.53782E-01 2.61539E-01 6.93503E+00
 -1       158 9.54025E-01 4.98616E-01 6.92843E+00
 -1       159 9.53643E-01 7.35976E-01 6.93339E+00
 -1       160 9.45961E-01 5.06330E-01 7.46588E+00
 -1       161 5.00050E-01 9.68983E-01 5.25652E-01
 -1       162 7.34607E-01 9.81456E-01 1.06399E+00
 -1       163 5.00068E-01 9.81756E-01 1.06629E+00
 -1       164 2.65520E-01 9.81448E-01 1.06400E+00
 -1       165 5.00064E-01 9.96354E-01 1.58641E+00
 -1       166 7.46254E-01 1.01470E+00 2.09142E+00
 -1       167 5.00062E-01 1.01478E+00 2.09245E+00
 -1       168 2.53877E-01 1.01468E+00 2.09142E+00
 -1       169 5.00059E-01 1.03360E+00 2.58629E+00
 -1       170 7.58279E-01 1.05109E+00 3.06614E+00
 -1       171 5.00055E-01 1.05079E+00 3.06713E+00
 -1       172 2.41854E-01 1.05107E+00 3.06614E+00
 -1       173 5.00052E-01 1.06589E+00 3.53675E+00
 -1       174 7.64603E-01 1.06945E+00 3.99972E+00
 -1       175 5.00049E-01 1.06897E+00 3.99972E+00
 -1       176 2.35528E-01 1.06942E+00 3.99972E+00
 -1       177 5.00048E-01 1.06578E+00 4.46270E+00
 -1       178 7.58223E-01 1.05089E+00 4.93335E+00
 -1       179 5.00048E-01 1.05059E+00 4.93236E+00
 -1       180 2.41903E-01 1.05087E+00 4.93335E+00
 -1       181 5.00049E-01 1.03333E+00 5.41325E+00
 -1       182 7.46165E-01 1.01438E+00 5.90820E+00
 -1       183 5.00050E-01 1.01446E+00 5.90717E+00
 -1       184 2.53957E-01 1.01436E+00 5.90820E+00
 -1       185 5.00051E-01 9.96003E-01 6.41329E+00
 -1       186 7.34506E-01 9.81099E-01 6.93580E+00
 -1       187 5.00056E-01 9.81398E-01 6.93350E+00
 -1       188 2.65610E-01 9.81085E-01 6.93579E+00
 -1       189 5.00042E-01 9.68625E-01 7.47425E+00
 -1       190 5.40799E-02 5.06441E-01 5.34058E-01
 -1       191 4.64045E-02 7.36121E-01 1.06642E+00
 -1       192 4.60161E-02 4.98780E-01 1.07139E+00
 -1       193 4.62521E-02 2.61615E-01 1.06478E+00
 -1       194 3.84679E-02 4.95750E-01 1.58891E+00
 -1       195 2.72430E-02 7.44597E-01 2.09324E+00
 -1       196 2.69581E-02 4.92811E-01 2.09418E+00
 -1       197 2.70112E-02 2.43615E-01 2.09130E+00
 -1       198 1.65138E-02 4.90510E-01 2.58841E+00
 -1       199 6.06205E-03 7.55266E-01 3.06766E+00
 -1       200 5.96980E-03 4.88248E-01 3.06906E+00
 -1       201 5.73942E-03 2.25089E-01 3.06583E+00
 -1       202-2.77756E-03 4.86595E-01 3.53788E+00
 -1       203-4.81948E-03 7.60942E-01 3.99971E+00
 -1       204-4.83922E-03 4.86003E-01 3.99969E+00
 -1       205-5.23694E-03 2.15785E-01 3.99968E+00
 -1       206-2.76176E-03 4.86543E-01 4.46152E+00
 -1       207 6.09493E-03 7.55153E-01 4.93181E+00
 -1       208 5.99979E-03 4.88151E-01 4.93038E+00
 -1       209 5.76678E-03 2.25036E-01 4.93360E+00
 -1       210 1.65573E-02 4.90379E-01 5.41110E+00
 -1       211 2.72994E-02 7.44417E-01 5.90637E+00
 -1       212 2.70097E-02 4.92657E-01 5.90542E+00
 -1       213 2.70586E-02 2.43530E-01 5.90829E+00
 -1       214 3.85277E-02 4.95584E-01 6.41078E+00
 -1       215 4.64744E-02 7.35916E-01 6.93338E+00
 -1       216 4.60801E-02 4.98606E-01 6.92841E+00
 -1       217 4.63109E-02 2.61527E-01 6.93503E+00
 -1       218 5.41478E-02 5.06320E-01 7.46588E+00
 -1       219 5.00067E-01 5.06451E-01 5.32007E-01
 -1       220 5.00063E-01 2.54633E-01 1.07174E+00
 -1       221 2.72772E-01 4.98006E-01 1.07322E+00
 -1       222 5.00078E-01 4.98437E-01 1.07458E+00
 -1       223 7.27373E-01 4.98019E-01 1.07321E+00
 -1       224 5.00075E-01 7.42384E-01 1.07081E+00
 -1       225 5.00071E-01 4.95086E-01 1.59299E+00
 -1       226 5.00048E-01 2.29115E-01 2.09727E+00
 -1       227 2.64846E-01 4.92733E-01 2.09916E+00
 -1       228 5.00066E-01 4.91730E-01 2.10061E+00
 -1       229 7.35284E-01 4.92753E-01 2.09916E+00
 -1       230 5.00069E-01 7.54398E-01 2.09963E+00
 -1       231 5.00061E-01 4.88785E-01 2.59420E+00
 -1       232 5.00034E-01 2.03195E-01 3.07182E+00
 -1       233 2.55331E-01 4.87636E-01 3.07309E+00
 -1       234 5.00056E-01 4.86143E-01 3.07429E+00
 -1       235 7.44778E-01 4.87667E-01 3.07309E+00
 -1       236 5.00065E-01 7.69867E-01 3.07317E+00
 -1       237 5.00051E-01 4.84172E-01 3.54059E+00
 -1       238 5.00023E-01 1.90339E-01 3.99968E+00
 -1       239 2.50473E-01 4.85333E-01 3.99969E+00
 -1       240 5.00047E-01 4.83539E-01 3.99969E+00
 -1       241 7.49618E-01 4.85371E-01 3.99969E+00
 -1       242 5.00060E-01 7.77575E-01 3.99970E+00
 -1       243 5.00045E-01 4.84111E-01 4.45880E+00
 -1       244 5.00023E-01 2.03132E-01 4.92760E+00
 -1       245 2.55338E-01 4.87533E-01 4.92635E+00
 -1       246 5.00046E-01 4.86029E-01 4.92515E+00
 -1       247 7.44752E-01 4.87568E-01 4.92635E+00
 -1       248 5.00059E-01 7.69710E-01 4.92629E+00
 -1       249 5.00048E-01 4.88631E-01 5.40531E+00
 -1       250 5.00032E-01 2.29017E-01 5.90232E+00
 -1       251 2.64860E-01 4.92570E-01 5.90044E+00
 -1       252 5.00051E-01 4.91551E-01 5.89899E+00
 -1       253 7.35240E-01 4.92597E-01 5.90043E+00
 -1       254 5.00059E-01 7.54146E-01 5.89997E+00
 -1       255 5.00054E-01 4.94893E-01 6.40670E+00
 -1       256 5.00044E-01 2.54530E-01 6.92807E+00
 -1       257 2.72790E-01 4.97818E-01 6.92658E+00
 -1       258 5.00060E-01 4.98233E-01 6.92521E+00
 -1       259 7.27323E-01 4.97839E-01 6.92658E+00
 -1       260 5.00065E-01 7.42104E-01 6.92898E+00
 -1       261 5.00053E-01 5.06297E-01 7.46793E+00
 -3
    3C                            32                                     1
 -1         1    4    0    1
 -2         1        10        95        19        61       105       222       192         9        93
 -2        94        20        62       103       219       190       104       220       221       193
 -1         2    4    0    1
 -2        10         2        13        95       105        34       134       222        11        12
 -2        96        93       103        33       132       219       106       133       223       220
 -1         3    4    0    1
 -2        19        95        16         4       192       222       163        79        94        97
 -2        17        18       190       219       161        78       221       224       164       191
 -1         4    4    0    1
 -2        95        13         3        16       222       134        64       163        96        14
 -2        15        97       219       132        63       161       223       135       162       224
 -1         5    4    0    1
 -2        61       105       222       192        59       109       228       196       104       220
 -2       221       193        60       107       225       194       108       226       227       197
 -1         6    4    0    1
 -2       105        34       134       222       109        36       138       228       106       133
 -2       223       220       107        35       136       225       110       137       229       226
 -1         7    4    0    1
 -2       192       222       163        79       196       228       167        81       221       224
 -2       164       191       194       225       165        80       227       230       168       195
 -1         8    4    0    1
 -2       222       134        64       163       228       138        66       167       223       135
 -2       162       224       225       136        65       165       229       139       166       230
 -1         9    4    0    1
 -2        59       109       228       196        57       113       234       200       108       226
 -2       227       197        58       111       231       198       112       232       233       201
 -1        10    4    0    1
 -2       109        36       138       228       113        38       142       234       110       137
 -2       229       226       111        37       140       231       114       141       235       232
 -1        11    4    0    1
 -2       196       228       167        81       200       234       171        83       227       230
 -2       168       195       198       231       169        82       233       236       172       199
 -1        12    4    0    1
 -2       228       138        66       167       234       142        68       171       229       139
 -2       166       230       231       140        67       169       235       143       170       236
 -1        13    4    0    1
 -2        57       113       234       200        55       117       240       204       112       232
 -2       233       201        56       115       237       202       116       238       239       205
 -1        14    4    0    1
 -2       113        38       142       234       117        40       146       240       114       141
 -2       235       232       115        39       144       237       118       145       241       238
 -1        15    4    0    1
 -2       200       234       171        83       204       240       175        85       233       236
 -2       172       199       202       237       173        84       239       242       176       203
 -1        16    4    0    1
 -2       234       142        68       171       240       146        70       175       235       143
 -2       170       236       237       144        69       173       241       147       174       242
 -1        17    4    0    1
 -2        55       117       240       204        53       121       246       208       116       238
 -2       239       205        54       119       243       206       120       244       245       209
 -1        18    4    0    1
 -2       117        40       146       240       121        42       150       246       118       145
 -2       241       238       119        41       148       243       122       149       247       244
 -1        19    4    0    1
 -2       204       240       175        85       208       246       179        87       239       242
 -2       176       203       206       243       177        86       245       248       180       207
 -1        20    4    0    1
 -2       240       146        70       175       246       150        72       179       241       147
 -2       174       242       243       148        71       177       247       151       178       248
 -1        21    4    0    1
 -2        53       121       246       208        51       125       252       212       120       244
 -2       245       209        52       123       249       210       124       250       251       213
 -1        22    4    0    1
 -2       121        42       150       246       125        44       154       252       122       149
 -2       247       244       123        43       152       249       126       153       253       250
 -1        23    4    0    1
 -2       208       246       179        87       212       252       183        89       245       248
 -2       180       207       210       249       181        88       251       254       184       211
 -1        24    4    0    1
 -2       246       150        72       179       252       154        74       183       247       151
 -2       178       248       249       152        73       181       253       155       182       254
 -1        25    4    0    1
 -2        51       125       252       212        49       129       258       216       124       250
 -2       251       213        50       127       255       214       128       256       257       217
 -1        26    4    0    1
 -2       125        44       154       252       129        46       158       258       126       153
 -2       253       250       127        45       156       255       130       157       259       256
 -1        27    4    0    1
 -2       212       252       183        89       216       258       187        91       251       254
 -2       184       211       214       255       185        90       257       260       188       215
 -1        28    4    0    1
 -2       252       154        74       183       258       158        76       187       253       155
 -2       182       254       255       156        75       185       259       159       186       260
 -1        29    4    0    1
 -2        49       129       258       216         5        22       100        31       128       256
 -2       257       217        48       131       261       218        21        98        99        32
 -1        30    4    0    1
 -2       129        46       158       258        22         6        25       100       130       157
 -2       259       256       131        47       160       261        23        24       101        98
 -1        31    4    0    1
 -2       216       258       187        91        31       100        28         8       257       260
 -2       188       215       218       261       189        92        99       102        29        30
 -1        32    4    0    1
 -2       258       158        76       187       100        25         7        28       259       159
 -2       186       260       261       160        77       189       101        26        27       102
 -3
    1PSTEP                         1           1           1          
  100CL  101 1.000000000         261                     0    1           1
 -4  DISP        4    1
 -5  D1          1    2    1    0
 -5  D2          1    2    2    0
 -5  D3          1    2    3    0
 -5  ALL         1    2    0    0    1ALL
 -1         1-9.99904E-05 4.08668E-04 1.95121E-03
 -1         2-1.21993E-04 4.08656E-04 1.95137E-03
 -1         3 0.00000E+00 0.00000E+00 0.00000E+00
 -1         4-2.22134E-04 0.00000E+00 0.00000E+00
 -1         5-1.00088E-04 4.08587E-04 2.09414E-04
 -1         6-1.22084E-04 4.08622E-04 2.09245E-04
 -1         7 0.00000E+00 0.00000E+00 2.16116E-03
 -1         8-2.22213E-04 0.00000E+00 2.16137E-03
 -1         9-1.07391E-04 4.74003E-04 1.92804E-03
 -1        10-1.10997E-04 4.74159E-04 1.92730E-03
 -1        11-1.14599E-04 4.74026E-04 1.92811E-03
 -1        12-1.05471E-04 4.85407E-04 1.49604E-03
 -1        13-1.07166E-04 4.39162E-04 1.06662E-03
 -1        14-1.16968E-04 2.43395E-04 5.98239E-04
 -1        15-5.84287E-05 3.25948E-04 7.87006E-05
 -1        16-1.11046E-04 4.77715E-04 1.67352E-04
 -1        17-1.63688E-04 3.25964E-04 7.86731E-05
 -1        18-1.05110E-04 2.43362E-04 5.98126E-04
 -1        19-1.14858E-04 4.39103E-04 1.06648E-03
 -1        20-1.16544E-04 4.85493E-04 1.49589E-03
 -1        21-1.07486E-04 4.74080E-04 2.32492E-04
 -1        22-1.11093E-04 4.74235E-04 2.33223E-04
 -1        23-1.14696E-04 4.74096E-04 2.32405E-04
 -1        24-1.05558E-04 4.85543E-04 6.64591E-04
 -1        25-1.07247E-04 4.39163E-04 1.09405E-03
 -1        26-1.17013E-04 2.43371E-04 1.56270E-03
 -1        27-5.84712E-05 3.25954E-04 2.08244E-03
 -1        28-1.11107E-04 4.77749E-04 1.99381E-03
 -1        29-1.63749E-04 3.25956E-04 2.08254E-03
 -1        30-1.05189E-04 2.43347E-04 1.56291E-03
 -1        31-1.14940E-04 4.39122E-04 1.09423E-03
 -1        32-1.16637E-04 4.85613E-04 6.64765E-04
 -1        33-1.04570E-04 1.42412E-03 1.89796E-03
 -1        34-8.50160E-05 2.39371E-03 1.84973E-03
 -1        35-7.49577E-05 3.24695E-03 1.75713E-03
 -1        36-7.20680E-05 3.91442E-03 1.65476E-03
 -1        37-6.68453E-05 4.48254E-03 1.52510E-03
 -1        38-6.14135E-05 4.83756E-03 1.38795E-03
 -1        39-5.58177E-05 5.13972E-03 1.23888E-03
 -1        40-6.13238E-05 5.15480E-03 1.08060E-03
 -1        41-5.58415E-05 5.14024E-03 9.22300E-04
 -1        42-6.14624E-05 4.83852E-03 7.73158E-04
 -1        43-6.69143E-05 4.48382E-03 6.35911E-04
 -1        44-7.21574E-05 3.91581E-03 5.06137E-04
 -1        45-7.50584E-05 3.24829E-03 4.03646E-04
 -1        46-8.51220E-05 2.39476E-03 3.10944E-04
 -1        47-1.04678E-04 1.42462E-03 2.62644E-04
 -1        48-1.17729E-04 1.42461E-03 2.62848E-04
 -1        49-1.37522E-04 2.39478E-03 3.11123E-04
 -1        50-1.47796E-04 3.24830E-03 4.03788E-04
 -1        51-1.50870E-04 3.91583E-03 5.06242E-04
 -1        52-1.56255E-04 4.48384E-03 6.35980E-04
 -1        53-1.61804E-04 4.83856E-03 7.73189E-04
 -1        54-1.67466E-04 5.14028E-03 9.22296E-04
 -1        55-1.61977E-04 5.15483E-03 1.08056E-03
 -1        56-1.67423E-04 5.13975E-03 1.23881E-03
 -1        57-1.61724E-04 4.83759E-03 1.38784E-03
 -1        58-1.56141E-04 4.48255E-03 1.52496E-03
 -1        59-1.50734E-04 3.91442E-03 1.65458E-03
 -1        60-1.47645E-04 3.24695E-03 1.75692E-03
 -1        61-1.37372E-04 2.39371E-03 1.84950E-03
 -1        62-1.17608E-04 1.42411E-03 1.89770E-03
 -1        63-8.48339E-05 1.45696E-03 2.04655E-04
 -1        64-1.71459E-04 2.33501E-03 2.76543E-04
 -1        65-1.43935E-04 3.26611E-03 3.68881E-04
 -1        66-1.55984E-04 3.90062E-03 4.77808E-04
 -1        67-1.54383E-04 4.48527E-03 6.09084E-04
 -1        68-1.67535E-04 4.86093E-03 7.57599E-04
 -1        69-1.67766E-04 5.11758E-03 9.12234E-04
 -1        70-1.73395E-04 5.18934E-03 1.08000E-03
 -1        71-1.67808E-04 5.11806E-03 1.24780E-03
 -1        72-1.67619E-04 4.86183E-03 1.40250E-03
 -1        73-1.54489E-04 4.48649E-03 1.55113E-03
 -1        74-1.56122E-04 3.90194E-03 1.68253E-03
 -1        75-1.44071E-04 3.26742E-03 1.79160E-03
 -1        76-1.71598E-04 2.33596E-03 1.88408E-03
 -1        77-8.49345E-05 1.45761E-03 1.95602E-03
 -1        78-1.37404E-04 1.45694E-03 2.04703E-04
 -1        79-5.09950E-05 2.33503E-03 2.76541E-04
 -1        80-7.86909E-05 3.26611E-03 3.68870E-04
 -1        81-6.68292E-05 3.90062E-03 4.77794E-04
 -1        82-6.85943E-05 4.48527E-03 6.09056E-04
 -1        83-5.55824E-05 4.86093E-03 7.57564E-04
 -1        84-5.54488E-05 5.11759E-03 9.12197E-04
 -1        85-4.98744E-05 5.18935E-03 1.07997E-03
 -1        86-5.54683E-05 5.11807E-03 1.24777E-03
 -1        87-5.56160E-05 4.86183E-03 1.40248E-03
 -1        88-6.86574E-05 4.48650E-03 1.55111E-03
 -1        89-6.68923E-05 3.90195E-03 1.68251E-03
 -1        90-7.87833E-05 3.26743E-03 1.79159E-03
 -1        91-5.10729E-05 2.33596E-03 1.88407E-03
 -1        92-1.37503E-04 1.45761E-03 1.95601E-03
 -1        93-1.11007E-04 4.47826E-04 1.47642E-03
 -1        94-1.06173E-04 4.05808E-04 1.04585E-03
 -1        95-1.11018E-04 4.15463E-04 1.03429E-03
 -1        96-1.15857E-04 4.05830E-04 1.04593E-03
 -1        97-1.11037E-04 4.41750E-04 5.87792E-04
 -1        98-1.11094E-04 4.47888E-04 6.84195E-04
 -1        99-1.06254E-04 4.05833E-04 1.11486E-03
 -1       100-1.11095E-04 4.15486E-04 1.12642E-03
 -1       101-1.15934E-04 4.05848E-04 1.11477E-03
 -1       102-1.11104E-04 4.41784E-04 1.57311E-03
 -1       103-1.11089E-04 1.42831E-03 1.90735E-03
 -1       104-1.24038E-04 2.38483E-03 1.87380E-03
 -1       105-1.11194E-04 2.39185E-03 1.87296E-03
 -1       106-9.83487E-05 2.38482E-03 1.87388E-03
 -1       107-1.11298E-04 3.22083E-03 1.79213E-03
 -1       108-1.32332E-04 3.91812E-03 1.68803E-03
 -1       109-1.11402E-04 3.93140E-03 1.68507E-03
 -1       110-9.04732E-05 3.91812E-03 1.68810E-03
 -1       111-1.11491E-04 4.44381E-03 1.56171E-03
 -1       112-1.37620E-04 4.85919E-03 1.42055E-03
 -1       113-1.11566E-04 4.87308E-03 1.41936E-03
 -1       114-8.55150E-05 4.85917E-03 1.42061E-03
 -1       115-1.11620E-04 5.07262E-03 1.25747E-03
 -1       116-1.42920E-04 5.21886E-03 1.08060E-03
 -1       117-1.11645E-04 5.37840E-03 1.08061E-03
 -1       118-8.03789E-05 5.21884E-03 1.08062E-03
 -1       119-1.11653E-04 5.07313E-03 9.03717E-04
 -1       120-1.37694E-04 4.86015E-03 7.40534E-04
 -1       121-1.11630E-04 4.87404E-03 7.41746E-04
 -1       122-8.55697E-05 4.86013E-03 7.40511E-04
 -1       123-1.11582E-04 4.44507E-03 5.99262E-04
 -1       124-1.32457E-04 3.91953E-03 4.72799E-04
 -1       125-1.11514E-04 3.93280E-03 4.75765E-04
 -1       126-9.05720E-05 3.91952E-03 4.72741E-04
 -1       127-1.11424E-04 3.22215E-03 3.68582E-04
 -1       128-1.24179E-04 2.38586E-03 2.86794E-04
 -1       129-1.11322E-04 2.39287E-03 2.87632E-04
 -1       130-9.84641E-05 2.38585E-03 2.86715E-04
 -1       131-1.11205E-04 1.42884E-03 2.53184E-04
 -1       132-1.12297E-04 1.41381E-03 1.05019E-03
 -1       133-1.00253E-04 2.41581E-03 1.44836E-03
 -1       134-1.10180E-04 2.44912E-03 1.05524E-03
 -1       135-1.23847E-04 2.38896E-03 6.56872E-04
 -1       136-1.13632E-04 3.25478E-03 1.07049E-03
 -1       137-9.05922E-05 3.95767E-03 1.35801E-03
 -1       138-1.08984E-04 3.98087E-03 1.06557E-03
 -1       139-1.36180E-04 3.95032E-03 7.78324E-04
 -1       140-1.10847E-04 4.50416E-03 1.07416E-03
 -1       141-8.79526E-05 4.87891E-03 1.22683E-03
 -1       142-1.09270E-04 4.91391E-03 1.07068E-03
 -1       143-1.37167E-04 4.89411E-03 9.17248E-04
 -1       144-1.11739E-04 5.12897E-03 1.07513E-03
 -1       145-7.57735E-05 5.20873E-03 1.08045E-03
 -1       146-1.08054E-04 5.22926E-03 1.08031E-03
 -1       147-1.34792E-04 5.21501E-03 1.08016E-03
 -1       148-1.11772E-04 5.12948E-03 1.08548E-03
 -1       149-8.80086E-05 4.87986E-03 9.34012E-04
 -1       150-1.09332E-04 4.91487E-03 1.08990E-03
 -1       151-1.37241E-04 4.89504E-03 1.24309E-03
 -1       152-1.10935E-04 4.50542E-03 1.08639E-03
 -1       153-9.06916E-05 3.95908E-03 8.02695E-04
 -1       154-1.09091E-04 3.98228E-03 1.09496E-03
 -1       155-1.36303E-04 3.95169E-03 1.38210E-03
 -1       156-1.13748E-04 3.25611E-03 1.09001E-03
 -1       157-1.00366E-04 2.41684E-03 7.12222E-04
 -1       158-1.10298E-04 2.45018E-03 1.10525E-03
 -1       159-1.23981E-04 2.38997E-03 1.50366E-03
 -1       160-1.12404E-04 1.41433E-03 1.11039E-03
 -1       161-1.11119E-04 1.37048E-03 1.99005E-04