    1C
    1UUSER                                                              
    1UDATE              28.february.2025                                
    1UTIME              16:17:38                                        
    1UHOST                                                              
    1UPGM               CalculiX                                        
    1UVERSION           Version DEVELOPMENT                             
    1UCOMPILETIME       Fri Feb 28 16:08:54 CET 2025                    
    1UDIR                                                               
    1UDBN                                                               
    1UMAT    1MATERIAL                                                  
    2C                            16                                     1
 -1         1 2.49000E-01 3.42000E-01 1.92000E-01
 -1         2 8.26000E-01 2.88000E-01 2.88000E-01
 -1         3 8.50000E-01 6.49000E-01 2.63000E-01
 -1         4 2.73000E-01 7.50000E-01 2.30000E-01
 -1         5 3.20000E-01 1.86000E-01 6.43000E-01
 -1         6 6.77000E-01 3.05000E-01 6.83000E-01
 -1         7 7.88000E-01 6.93000E-01 6.44000E-01
 -1         8 1.65000E-01 7.45000E-01 7.02000E-01
 -1         9 0.00000E+00 0.00000E+00 0.00000E+00
 -1        10 0.00000E+00 1.00000E+00 0.00000E+00
 -1        11 1.00000E+00 1.00000E+00 0.00000E+00
 -1        12 1.00000E+00 0.00000E+00 0.00000E+00
 -1        13 0.00000E+00 0.00000E+00 1.00000E+00
 -1        14 1.00000E+00 0.00000E+00 1.00000E+00
 -1        15 1.00000E+00 1.00000E+00 1.00000E+00
 -1        16 0.00000E+00 1.00000E+00 1.00000E+00
 -3
    3C                             7                                     1
 -1         1    1    0    1
 -2         1         2         3         4         5         6         7         8
 -1         2    1    0    1
 -2         1         4         3         2         9        10        11        12
 -1         3    1    0    1
 -2         5         6         7         8        13        14        15        16
 -1         4    1    0    1
 -2         1         2         6         5         9        12        14        13
 -1         5    1    0    1
 -2         2         3         7         6        12        11        15        14
 -1         6    1    0    1
 -2         3         4         8         7        11        10        16        15
 -1         7    1    0    1
 -2         4         1         5         8        10         9        13        16
 -3
    1PSTEP                         1           1           1          
  100CL  101 1.000000000          16                     0    1           1
 -4  STRESS      6    1
 -5  SXX         1    4    1    1
 -5  SYY         1    4    2    2
 -5  SZZ         1    4    3    3
 -5  SXY         1    4    1    2
 -5  SYZ         1    4    2    3
 -5  SZX         1    4    3    1
 -1         1 1.99992E+03 1.99992E+03 1.99992E+03 3.99984E+02 3.99984E+02 3.99984E+02
 -1         2 1.99992E+03 1.99992E+03 1.99992E+03 3.99984E+02 3.99984E+02 3.99984E+02
 -1         3 1.99992E+03 1.99992E+03 1.99992E+03 3.99984E+02 3.99984E+02 3.99984E+02
 -1         4 1.99992E+03 1.99992E+03 1.99992E+03 3.99984E+02 3.99984E+02 3.99984E+02
 -1         5 1.99992E+03 1.99992E+03 1.99992E+03 3.99984E+02 3.99984E+02 3.99984E+02
 -1         6 1.99992E+03 1.99992E+03 1.99992E+03 3.99984E+02 3.99984E+02 3.99984E+02
 -1         7 1.99992E+03 1.99992E+03 1.99992E+03 3.99984E+02 3.99984E+02 3.99984E+02
 -1         8 1.99992E+03 1.99992E+03 1.99992E+03 3.99984E+02 3.99984E+02 3.99984E+02
 -1         9 1.99992E+03 1.99992E+03 1.99992E+03 3.99984E+02 3.99984E+02 3.99984E+02
 -1        10 1.99992E+03 1.99992E+03 1.99992E+03 3.99984E+02 3.99984E+02 3.99984E+02
 -1        11 1.99992E+03 1.99992E+03 1.99992E+03 3.99984E+02 3.99984E+02 3.99984E+02
 -1        12 1.99992E+03 1.99992E+03 1.99992E+03 3.99984E+02 3.99984E+02 3.99984E+02
 -1        13 1.99992E+03 1.99992E+03 1.99992E+03 3.99984E+02 3.99984E+02 3.99984E+02
 -1        14 1.99992E+03 1.99992E+03 1.99992E+03 3.99984E+02 3.99984E+02 3.99984E+02
 -1        15 1.99992E+03 1.99992E+03 1.99992E+03 3.99984E+02 3.99984E+02 3.99984E+02
 -1        16 1.99992E+03 1.99992E+03 1.99992E+03 3.99984E+02 3.99984E+02 3.99984E+02
 -3
    1PSTEP                         2           1           1          
  100CL  101 1.000000000          16                     0    1           1
 -4  TOSTRAIN    6    1
 -5  EXX         1    4    1    1
 -5  EYY         1    4    2    2
 -5  EZZ         1    4    3    3
 -5  EXY         1    4    1    2
 -5  EYZ         1    4    2    3
 -5  EZX         1    4    3    1
 -1         1 9.99960E-04 9.99960E-04 9.99960E-04 4.99980E-04 4.99980E-04 4.99980E-04
 -1         2 9.99960E-04 9.99960E-04 9.99960E-04 4.99980E-04 4.99980E-04 4.99980E-04
 -1         3 9.99960E-04 9.99960E-04 9.99960E-04 4.99980E-04 4.99980E-04 4.99980E-04
 -1         4 9.99960E-04 9.99960E-04 9.99960E-04 4.99980E-04 4.99980E-04 4.99980E-04
 -1         5 9.99960E-04 9.99960E-04 9.99960E-04 4.99980E-04 4.99980E-04 4.99980E-04
 -1         6 9.99960E-04 9.99960E-04 9.99960E-04 4.99980E-04 4.99980E-04 4.99980E-04
 -1         7 9.99960E-04 9.99960E-04 9.99960E-04 4.99980E-04 4.99980E-04 4.99980E-04
 -1         8 9.99960E-04 9.99960E-04 9.99960E-04 4.99980E-04 4.99980E-04 4.99980E-04
 -1         9 9.99960E-04 9.99960E-04 9.99960E-04 4.99980E-04 4.99980E-04 4.99980E-04
 -1        10 9.99960E-04 9.99960E-04 9.99960E-04 4.99980E-04 4.99980E-04 4.99980E-04
 -1        11 9.99960E-04 9.99960E-04 9.99960E-04 4.99980E-04 4.99980E-04 4.99980E-04
 -1        12 9.99960E-04 9.99960E-04 9.99960E-04 4.99980E-04 4.99980E-04 4.99980E-04
 -1        13 9.99960E-04 9.99960E-04 9.99960E-04 4.99980E-04 4.99980E-04 4.99980E-04
 -1        14 9.99960E-04 9.99960E-04 9.99960E-04 4.99980E-04 4.99980E-04 4.99980E-04
 -1        15 9.99960E-04 9.99960E-04 9.99960E-04 4.99980E-04 4.99980E-04 4.99980E-04
 -1        16 9.99960E-04 9.99960E-04 9.99960E-04 4.99980E-04 4.99980E-04 4.99980E-04
 -3
 9999
