    1C
    1UUSER                                                              
    1UDATE              19.july.2022                                    
    1UTIME              21:40:00                                        
    1UHOST                                                              
    1UPGM               CalculiX                                        
    1UVERSION           Version DEVELOPMENT                             
    1UCOMPILETIME       Tue Jul 19 21:11:38 CEST 2022                    
    1UDIR                                                               
    1UDBN                                                               
    1UMAT    1STEEL                                                     
    2C                            40                                     1
 -1         7 5.00000E+00-5.00000E+00 0.00000E+00
 -1         8-5.00000E+00-5.00000E+00 0.00000E+00
 -1         9-5.00000E+00 5.00000E+00 0.00000E+00
 -1        10 5.00000E+00 5.00000E+00 0.00000E+00
 -1        11 0.00000E+00-5.00000E+00 0.00000E+00
 -1        12-5.00000E+00 0.00000E+00 0.00000E+00
 -1        13 0.00000E+00 5.00000E+00 0.00000E+00
 -1        14 5.00000E+00 0.00000E+00 0.00000E+00
 -1        15 5.00000E+00-5.00000E+00-1.50000E+01
 -1        16-5.00000E+00-5.00000E+00-1.50000E+01
 -1        17-5.00000E+00 5.00000E+00-1.50000E+01
 -1        18 5.00000E+00 5.00000E+00-1.50000E+01
 -1        23 5.00000E+00-5.00000E+00-3.00000E+01
 -1        24-5.00000E+00-5.00000E+00-3.00000E+01
 -1        25-5.00000E+00 5.00000E+00-3.00000E+01
 -1        26 5.00000E+00 5.00000E+00-3.00000E+01
 -1        27 0.00000E+00-5.00000E+00-3.00000E+01
 -1        28-5.00000E+00 0.00000E+00-3.00000E+01
 -1        29 0.00000E+00 5.00000E+00-3.00000E+01
 -1        30 5.00000E+00 0.00000E+00-3.00000E+01
 -1        31 5.00000E+00-5.00000E+00-3.00000E+01
 -1        32-5.00000E+00-5.00000E+00-3.00000E+01
 -1        33-5.00000E+00 5.00000E+00-3.00000E+01
 -1        34 5.00000E+00 5.00000E+00-3.00000E+01
 -1        35 0.00000E+00-5.00000E+00-3.00000E+01
 -1        36-5.00000E+00 0.00000E+00-3.00000E+01
 -1        37 0.00000E+00 5.00000E+00-3.00000E+01
 -1        38 5.00000E+00 0.00000E+00-3.00000E+01
 -1        39 5.00000E+00-5.00000E+00-1.80000E+02
 -1        40-5.00000E+00-5.00000E+00-1.80000E+02
 -1        41-5.00000E+00 5.00000E+00-1.80000E+02
 -1        42 5.00000E+00 5.00000E+00-1.80000E+02
 -1        47 5.00000E+00-5.00000E+00-3.30000E+02
 -1        48-5.00000E+00-5.00000E+00-3.30000E+02
 -1        49-5.00000E+00 5.00000E+00-3.30000E+02
 -1        50 5.00000E+00 5.00000E+00-3.30000E+02
 -1        51 0.00000E+00-5.00000E+00-3.30000E+02
 -1        52-5.00000E+00 0.00000E+00-3.30000E+02
 -1        53 0.00000E+00 5.00000E+00-3.30000E+02
 -1        54 5.00000E+00 0.00000E+00-3.30000E+02
 -3
    3C                             2                                     1
 -1         1    4    0    1
 -2         7        23        24         8        10        26        25         9        15        27
 -2        16        11        14        30        28        12        18        29        17        13
 -1         2    4    0    1
 -2        31        47        48        32        34        50        49        33        39        51
 -2        40        35        38        54        52        36        42        53        41        37
 -3
    1PSTEP                         1           1           1          
  100CL  101 1.00000E-05          40                     1    1           1
 -4  DISP        4    1
 -5  D1          1    2    1    0
 -5  D2          1    2    2    0
 -5  D3          1    2    3    0
 -5  ALL         1    2    0    0    1ALL
 -1         7-3.61637E-08 2.63041E-08-3.14000E-04
 -1         8 3.61637E-08 2.63041E-08 3.14000E-04
 -1         9 3.61637E-08-2.63041E-08 3.14000E-04
 -1        10-3.61637E-08-2.63041E-08-3.14000E-04
 -1        11 0.00000E+00 2.63041E-08 0.00000E+00
 -1        12 3.61637E-08 0.00000E+00 3.14000E-04
 -1        13 0.00000E+00-2.63041E-08 0.00000E+00
 -1        14-3.61637E-08 0.00000E+00-3.14000E-04
 -1        15-2.29971E-04 1.75138E-08-7.39540E-06
 -1        16-2.29936E-04 1.75138E-08 6.96495E-06
 -1        17-2.29936E-04-1.75138E-08 6.96495E-06
 -1        18-2.29971E-04-1.75138E-08-7.39540E-06
 -1        23-4.38634E-06 1.18855E-08 8.41685E-05
 -1        24-4.36114E-06 1.18855E-08-8.48765E-05
 -1        25-4.36114E-06-1.18855E-08-8.48765E-05
 -1        26-4.38634E-06-1.18855E-08 8.41685E-05
 -1        27-4.37375E-06 1.18855E-08-3.54021E-07
 -1        28-4.36114E-06 0.00000E+00-8.48765E-05
 -1        29-4.37375E-06-1.18855E-08-3.54021E-07
 -1        30-4.38634E-06 0.00000E+00 8.41685E-05
 -1        31-4.37619E-06 2.44298E-09-7.18541E-08
 -1        32-4.37130E-06 2.44298E-09-6.36187E-07
 -1        33-4.37130E-06-2.44298E-09-6.36187E-07
 -1        34-4.37619E-06-2.44298E-09-7.18541E-08
 -1        35-4.37375E-06 2.44298E-09-3.54021E-07
 -1        36-4.37130E-06 0.00000E+00-6.36187E-07
 -1        37-4.37375E-06-2.44298E-09-3.54021E-07
 -1        38-4.37619E-06 0.00000E+00-7.18541E-08
 -1        39 7.23756E-07 5.24914E-10-4.55903E-07
 -1        40 7.24806E-07 5.24914E-10-5.50650E-07
 -1        41 7.24806E-07-5.24914E-10-5.50650E-07
 -1        42 7.23756E-07-5.24914E-10-4.55903E-07
 -1        47-1.44875E-06-1.39315E-09-6.47019E-07
 -1        48-1.45153E-06-1.39315E-09-2.72178E-07
 -1        49-1.45153E-06 1.39315E-09-2.72178E-07
 -1        50-1.44875E-06 1.39315E-09-6.47019E-07
 -1        51-1.45014E-06-1.39315E-09-4.59599E-07
 -1        52-1.45153E-06 0.00000E+00-2.72178E-07
 -1        53-1.45014E-06 1.39315E-09-4.59599E-07
 -1        54-1.44875E-06 0.00000E+00-6.47019E-07
 -3
    1PSTEP                         2           1           1          
  100CL  101 1.00000E-05          40                     1    1           1
 -4  ENER        1    1
 -5  ENER        1    1    0    0
 -1         7 1.19364E-04
 -1         8 1.19553E-04
 -1         9 1.19553E-04
 -1        10 1.19364E-04
 -1        11 3.33394E-05
 -1        12 1.19555E-04
 -1        13 3.33394E-05
 -1        14 1.19366E-04
 -1        15 3.04331E-05
 -1        16 3.04963E-05
 -1        17 3.04963E-05
 -1        18 3.04331E-05
 -1        23-3.83598E-06
 -1        24-3.83862E-06
 -1        25-3.83862E-06
 -1        26-3.83598E-06
 -1        27 1.26256E-05
 -1        28-3.83677E-06
 -1        29 1.26256E-05
 -1        30-3.83413E-06
 -1        31 1.23774E-12
 -1        32 2.06475E-13
 -1        33 2.06475E-13
 -1        34 1.23774E-12
 -1        35 3.92297E-13
 -1        36 2.06491E-13
 -1        37 3.92297E-13
 -1        38 1.23776E-12
 -1        39 4.55707E-13
 -1        40 2.34397E-13
 -1        41 2.34397E-13
 -1        42 4.55707E-13
 -1        47 1.83238E-13
 -1        48 7.71885E-13
 -1        49 7.71885E-13
 -1        50 1.83238E-13
 -1        51 1.47750E-13
 -1        52 7.71901E-13
 -1        53 1.47750E-13
 -1        54 1.83254E-13
 -3
    1PSTEP                         3           2           1          
  100CL  102 2.00000E-05          40                     1    2           1
 -4  DISP        4    1
 -5  D1          1    2    1    0
 -5  D2          1    2    2    0
 -5  D3          1    2    3    0
 -5  ALL         1    2    0    0    1ALL
 -1         7-1.08386E-07 6.89476E-08-6.28000E-04
 -1         8 1.08386E-07 6.89476E-08 6.28000E-04
 -1         9 1.08386E-07-6.89476E-08 6.28000E-04
 -1        10-1.08386E-07-6.89476E-08-6.28000E-04
 -1        11 0.00000E+00 6.89476E-08 0.00000E+00
 -1        12 1.08386E-07 0.00000E+00 6.28000E-04
 -1        13 0.00000E+00-6.89476E-08 0.00000E+00
 -1        14-1.08386E-07 0.00000E+00-6.28000E-04
 -1        15-7.54440E-04 5.38590E-08-2.80580E-05
 -1        16-7.54332E-04 5.38590E-08 2.69023E-05
 -1        17-7.54332E-04-5.38590E-08 2.69023E-05
 -1        18-7.54440E-04-5.38590E-08-2.80580E-05
 -1        23-1.14322E-04 5.18863E-08 2.84425E-04
 -1        24-1.14202E-04 5.18863E-08-2.86544E-04
 -1        25-1.14202E-04-5.18863E-08-2.86544E-04
 -1        26-1.14322E-04-5.18863E-08 2.84425E-04
 -1        27-1.14262E-04 5.18863E-08-1.05987E-06
 -1        28-1.14202E-04 0.00000E+00-2.86544E-04
 -1        29-1.14262E-04-5.18863E-08-1.05987E-06
 -1        30-1.14322E-04 0.00000E+00 2.84425E-04
 -1        31-1.14277E-04 1.54307E-08 6.33875E-06
 -1        32-1.14247E-04 1.54307E-08-8.45849E-06
 -1        33-1.14247E-04-1.54307E-08-8.45849E-06
 -1        34-1.14277E-04-1.54307E-08 6.33875E-06
 -1        35-1.14262E-04 1.54307E-08-1.05987E-06
 -1        36-1.14247E-04 0.00000E+00-8.45849E-06
 -1        37-1.14262E-04-1.54307E-08-1.05987E-06
 -1        38-1.14277E-04 0.00000E+00 6.33875E-06
 -1        39 1.89153E-05 3.66737E-09-7.75005E-07
 -1        40 1.89226E-05 3.66737E-09-3.25960E-06
 -1        41 1.89226E-05-3.66737E-09-3.25960E-06
 -1        42 1.89153E-05-3.66737E-09-7.75005E-07
 -1        47-3.78713E-05-8.09359E-09-6.70945E-06
 -1        48-3.78875E-05-8.09359E-09 3.11861E-06
 -1        49-3.78875E-05 8.09359E-09 3.11861E-06
 -1        50-3.78713E-05 8.09359E-09-6.70945E-06
 -1        51-3.78794E-05-8.09359E-09-1.79542E-06
 -1        52-3.78875E-05 0.00000E+00 3.11861E-06
 -1        53-3.78794E-05 8.09359E-09-1.79542E-06
 -1        54-3.78713E-05 0.00000E+00-6.70945E-06
 -3
    1PSTEP                         4           2           1          
  100CL  102 2.00000E-05          40                     1    2           1
 -4  ENER        1    1
 -5  ENER        1    1    0    0
 -1         7 3.33836E-04
 -1         8 3.34752E-04
 -1         9 3.34752E-04
 -1        10 3.33836E-04
 -1        11 3.25413E-05
 -1        12 3.34758E-04
 -1        13 3.25413E-05
 -1        14 3.33842E-04
 -1        15 1.36581E-04
 -1        16 1.37013E-04
 -1        17 1.37013E-04
 -1        18 1.36581E-04
 -1        23 2.46135E-05
 -1        24 2.47788E-05
 -1        25 2.47788E-05
 -1        26 2.46135E-05
 -1        27 3.72584E-05
 -1        28 2.47848E-05
 -1        29 3.72584E-05
 -1        30 2.46196E-05
 -1        31 3.88355E-10
 -1        32 2.18355E-10
 -1        33 2.18355E-10
 -1        34 3.88355E-10
 -1        35 7.66095E-11
 -1        36 2.18365E-10
 -1        37 7.66095E-11
 -1        38 3.88365E-10
 -1        39 2.48999E-10
 -1        40 2.08633E-10
 -1        41 2.08633E-10
 -1        42 2.48999E-10
 -1        47 2.17657E-10
 -1        48 3.06899E-10
 -1        49 3.06899E-10
 -1        50 2.17657E-10
 -1        51 3.55323E-11
 -1        52 3.06909E-10
 -1        53 3.55323E-11
 -1        54 2.17667E-10
 -3
    1PSTEP                         5           3           1          
  100CL  103 3.50000E-05          40                     1    3           1
 -4  DISP        4    1
 -5  D1          1    2    1    0
 -5  D2          1    2    2    0
 -5  D3          1    2    3    0
 -5  ALL         1    2    0    0    1ALL
 -1         7-2.27886E-07 1.07106E-07-1.09900E-03
 -1         8 2.27886E-07 1.07106E-07 1.09900E-03
 -1         9 2.27886E-07-1.07106E-07 1.09900E-03
 -1        10-2.27886E-07-1.07106E-07-1.09900E-03
 -1        11 0.00000E+00 1.07106E-07 0.00000E+00
 -1        12 2.27886E-07 0.00000E+00 1.09900E-03
 -1        13 0.00000E+00-1.07106E-07 0.00000E+00
 -1        14-2.27886E-07 0.00000E+00-1.09900E-03
 -1        15-1.52839E-03 9.06038E-08-1.60889E-04
 -1        16-1.52821E-03 9.06038E-08 1.59151E-04
 -1        17-1.52821E-03-9.06038E-08 1.59151E-04
 -1        18-1.52839E-03-9.06038E-08-1.60889E-04
 -1        23-8.87901E-04 1.06003E-07 3.26256E-04
 -1        24-8.87668E-04 1.06003E-07-3.29774E-04
 -1        25-8.87668E-04-1.06003E-07-3.29774E-04
 -1        26-8.87901E-04-1.06003E-07 3.26256E-04
 -1        27-8.87784E-04 1.06003E-07-1.75915E-06
 -1        28-8.87668E-04 0.00000E+00-3.29774E-04
 -1        29-8.87784E-04-1.06003E-07-1.75915E-06
 -1        30-8.87901E-04 0.00000E+00 3.26256E-04
 -1        31-8.87847E-04 6.24600E-08 5.68323E-05
 -1        32-8.87722E-04 6.24600E-08-6.03506E-05
 -1        33-8.87722E-04-6.24600E-08-6.03506E-05
 -1        34-8.87847E-04-6.24600E-08 5.68323E-05
 -1        35-8.87784E-04 6.24600E-08-1.75915E-06
 -1        36-8.87722E-04 0.00000E+00-6.03506E-05
 -1        37-8.87784E-04-6.24600E-08-1.75915E-06
 -1        38-8.87847E-04 0.00000E+00 5.68323E-05
 -1        39 1.46734E-04 1.94169E-08 4.00090E-06
 -1        40 1.46773E-04 1.94169E-08-1.57000E-05
 -1        41 1.46773E-04-1.94169E-08-1.57000E-05
 -1        42 1.46734E-04-1.94169E-08 4.00090E-06
 -1        47-2.93813E-04-2.34821E-08-4.45352E-05
 -1        48-2.93859E-04-2.34821E-08 3.32459E-05
 -1        49-2.93859E-04 2.34821E-08 3.32459E-05
 -1        50-2.93813E-04 2.34821E-08-4.45352E-05
 -1        51-2.93836E-04-2.34821E-08-5.64467E-06
 -1        52-2.93859E-04 0.00000E+00 3.32459E-05
 -1        53-2.93836E-04 2.34821E-08-5.64467E-06
 -1        54-2.93813E-04 0.00000E+00-4.45352E-05
 -3
    1PSTEP                         6           3           1          
  100CL  103 3.50000E-05          40                     1    3           1
 -4  ENER        1    1
 -5  ENER        1    1    0    0
 -1         7 8.17707E-04
 -1         8 8.19942E-04
 -1         9 8.19942E-04
 -1        10 8.17707E-04
 -1        11 8.05812E-05
 -1        12 8.19956E-04
 -1        13 8.05812E-05
 -1        14 8.17721E-04
 -1        15 3.33450E-04
 -1        16 3.34582E-04
 -1        17 3.34582E-04
 -1        18 3.33450E-04
 -1        23 5.70969E-05
 -1        24 5.76374E-05
 -1        25 5.76374E-05
 -1        26 5.70969E-05
 -1        27 8.91318E-05
 -1        28 5.76521E-05
 -1        29 8.91318E-05
 -1        30 5.71116E-05
 -1        31 1.74488E-08
 -1        32 1.20295E-08
 -1        33 1.20295E-08
 -1        34 1.74488E-08
 -1        35 5.26079E-10
 -1        36 1.20300E-08
 -1        37 5.26079E-10
 -1        38 1.74494E-08
 -1        39 1.50765E-08
 -1        40 1.33920E-08
 -1        41 1.33920E-08
 -1        42 1.50765E-08
 -1        47 1.34426E-08
 -1        48 1.54804E-08
 -1        49 1.54804E-08
 -1        50 1.34426E-08
 -1        51 2.48416E-10
 -1        52 1.54809E-08
 -1        53 2.48416E-10
 -1        54 1.34432E-08
 -3
    1PSTEP                         7           4           1          
  100CL  104 5.75000E-05          40                     1    4           1
 -4  DISP        4    1
 -5  D1          1    2    1    0
 -5  D2          1    2    2    0
 -5  D3          1    2    3    0
 -5  ALL         1    2    0    0    1ALL
 -1         7-4.86633E-07 1.60650E-07-1.80550E-03
 -1         8 4.86633E-07 1.60650E-07 1.80550E-03
 -1         9 4.86633E-07-1.60650E-07 1.80550E-03
 -1        10-4.86633E-07-1.60650E-07-1.80550E-03
 -1        11 0.00000E+00 1.60650E-07 0.00000E+00
 -1        12 4.86633E-07 0.00000E+00 1.80550E-03
 -1        13 0.00000E+00-1.60650E-07 0.00000E+00
 -1        14-4.86633E-07 0.00000E+00-1.80550E-03
 -1        15-3.13863E-03 1.42925E-07-6.71589E-04
 -1        16-3.13825E-03 1.42925E-07 6.69321E-04
 -1        17-3.13825E-03-1.42925E-07 6.69321E-04
 -1        18-3.13863E-03-1.42925E-07-6.71589E-04
 -1        23-3.91402E-03 1.69888E-07-1.53791E-04
 -1        24-3.91367E-03 1.69888E-07 1.48647E-04
 -1        25-3.91367E-03-1.69888E-07 1.48647E-04
 -1        26-3.91402E-03-1.69888E-07-1.53791E-04
 -1        27-3.91384E-03 1.69888E-07-2.57237E-06
 -1        28-3.91367E-03 0.00000E+00 1.48647E-04
 -1        29-3.91384E-03-1.69888E-07-2.57237E-06
 -1        30-3.91402E-03 0.00000E+00-1.53791E-04
 -1        31-3.91400E-03 1.49661E-07 2.56469E-04
 -1        32-3.91369E-03 1.49661E-07-2.61614E-04
 -1        33-3.91369E-03-1.49661E-07-2.61614E-04
 -1        34-3.91400E-03-1.49661E-07 2.56469E-04
 -1        35-3.91384E-03 1.49661E-07-2.57237E-06
 -1        36-3.91369E-03 0.00000E+00-2.61614E-04
 -1        37-3.91384E-03-1.49661E-07-2.57237E-06
 -1        38-3.91400E-03 0.00000E+00 2.56469E-04
 -1        39 6.44076E-04 6.61719E-08 3.04325E-05
 -1        40 6.44208E-04 6.61719E-08-5.69517E-05
 -1        41 6.44208E-04-6.61719E-08-5.69517E-05
 -1        42 6.44076E-04-6.61719E-08 3.04325E-05
 -1        47-1.28973E-03-1.45226E-08-1.87453E-04
 -1        48-1.28975E-03-1.45226E-08 1.55862E-04
 -1        49-1.28975E-03 1.45226E-08 1.55862E-04
 -1        50-1.28973E-03 1.45226E-08-1.87453E-04
 -1        51-1.28974E-03-1.45226E-08-1.57952E-05
 -1        52-1.28975E-03 0.00000E+00 1.55862E-04
 -1        53-1.28974E-03 1.45226E-08-1.57952E-05
 -1        54-1.28973E-03 0.00000E+00-1.87453E-04
 -3
    1PSTEP                         8           4           1          
  100CL  104 5.75000E-05          40                     1    4           1
 -4  ENER        1    1
 -5  ENER        1    1    0    0
 -1         7 1.29422E-03
 -1         8 1.29830E-03
 -1         9 1.29830E-03
 -1        10 1.29422E-03
 -1        11 1.86704E-04
 -1        12 1.29833E-03
 -1        13 1.86704E-04
 -1        14 1.29424E-03
 -1        15 4.63250E-04
 -1        16 4.65346E-04
 -1        17 4.65346E-04
 -1        18 4.63250E-04
 -1        23 2.76461E-05
 -1        24 2.83638E-05
 -1        25 2.83638E-05
 -1        26 2.76461E-05
 -1        27 1.37434E-04
 -1        28 2.83857E-05
 -1        29 1.37434E-04
 -1        30 2.76680E-05
 -1        31 3.08929E-07
 -1        32 2.51613E-07
 -1        33 2.51613E-07
 -1        34 3.08929E-07
 -1        35 2.81931E-09
 -1        36 2.51623E-07
 -1        37 2.81931E-09
 -1        38 3.08939E-07
 -1        39 2.90330E-07
 -1        40 2.64996E-07
 -1        41 2.64996E-07
 -1        42 2.90330E-07
 -1        47 2.76233E-07
 -1        48 2.81801E-07
 -1        49 2.81801E-07
 -1        50 2.76233E-07
 -1        51 1.56469E-09
 -1        52 2.81811E-07
 -1        53 1.56469E-09
 -1        54 2.76243E-07
 -3
    1PSTEP                         9           5           1          
  100CL  105 9.12500E-05          40                     1    5           1
 -4  DISP        4    1
 -5  D1          1    2    1    0
 -5  D2          1    2    2    0
 -5  D3          1    2    3    0
 -5  ALL         1    2    0    0    1ALL
 -1         7-1.11760E-06 2.96630E-07-2.86525E-03
 -1         8 1.11760E-06 2.96630E-07 2.86525E-03
 -1         9 1.11760E-06-2.96630E-07 2.86525E-03
 -1        10-1.11760E-06-2.96630E-07-2.86525E-03
 -1        11 0.00000E+00 2.96630E-07 0.00000E+00
 -1        12 1.11760E-06 0.00000E+00 2.86525E-03
 -1        13 0.00000E+00-2.96630E-07 0.00000E+00
 -1        14-1.11760E-06 0.00000E+00-2.86525E-03
 -1        15-7.16130E-03 2.81275E-07-2.11074E-03
 -1        16-7.15984E-03 2.81275E-07 2.10843E-03
 -1        17-7.15984E-03-2.81275E-07 2.10843E-03
 -1        18-7.16130E-03-2.81275E-07-2.11074E-03
 -1        23-1.25970E-02 2.86463E-07-1.72570E-03
 -1        24-1.25959E-02 2.86463E-07 1.71978E-03
 -1        25-1.25959E-02-2.86463E-07 1.71978E-03
 -1        26-1.25970E-02-2.86463E-07-1.72570E-03
 -1        27-1.25965E-02 2.86463E-07-2.95675E-06
 -1        28-1.25959E-02 0.00000E+00 1.71978E-03
 -1        29-1.25965E-02-2.86463E-07-2.95675E-06
 -1        30-1.25970E-02 0.00000E+00-1.72570E-03
 -1        31-1.25968E-02 2.91791E-07 8.28935E-04
 -1        32-1.25961E-02 2.91791E-07-8.34848E-04
 -1        33-1.25961E-02-2.91791E-07-8.34848E-04
 -1        34-1.25968E-02-2.91791E-07 8.28935E-04
 -1        35-1.25965E-02 2.91791E-07-2.95675E-06
 -1        36-1.25961E-02 0.00000E+00-8.34848E-04
 -1        37-1.25965E-02-2.91791E-07-2.95675E-06
 -1        38-1.25968E-02 0.00000E+00 8.28935E-04
 -1        39 2.04871E-03 1.46689E-07 1.17722E-04
 -1        40 2.04901E-03 1.46689E-07-1.65336E-04
 -1        41 2.04901E-03-1.46689E-07-1.65336E-04
 -1        42 2.04871E-03-1.46689E-07 1.17722E-04
 -1        47-4.10250E-03 3.02705E-08-5.80998E-04
 -1        48-4.10238E-03 3.02705E-08 5.16669E-04
 -1        49-4.10238E-03-3.02705E-08 5.16669E-04
 -1        50-4.10250E-03-3.02705E-08-5.80998E-04
 -1        51-4.10244E-03 3.02705E-08-3.21645E-05
 -1        52-4.10238E-03 0.00000E+00 5.16669E-04
 -1        53-4.10244E-03-3.02705E-08-3.21645E-05
 -1        54-4.10250E-03 0.00000E+00-5.80998E-04
 -3
    1PSTEP                        10           5           1          
  100CL  105 9.12500E-05          40                     1    5           1
 -4  ENER        1    1
 -5  ENER        1    1    0    0
 -1         7 5.32942E-04
 -1         8 5.37907E-04
 -1         9 5.37907E-04
 -1        10 5.32942E-04
 -1        11 5.55314E-05
 -1        12 5.37916E-04
 -1        13 5.55314E-05
 -1        14 5.32952E-04
 -1        15 2.13517E-04
 -1        16 2.16366E-04
 -1        17 2.16366E-04
 -1        18 2.13517E-04
 -1        23 3.33918E-05
 -1        24 3.44441E-05
 -1        25 3.44441E-05
 -1        26 3.33918E-05
 -1        27 5.82363E-05
 -1        28 3.44536E-05
 -1        29 5.82363E-05
 -1        30 3.34014E-05
 -1        31 3.04721E-06
 -1        32 2.68885E-06
 -1        33 2.68885E-06
 -1        34 3.04721E-06
 -1        35 1.66534E-08
 -1        36 2.68895E-06
 -1        37 1.66534E-08
 -1        38 3.04731E-06
 -1        39 2.94246E-06
 -1        40 2.76249E-06
 -1        41 2.76249E-06
 -1        42 2.94246E-06
 -1        47 2.88228E-06
 -1        48 2.84522E-06
 -1        49 2.84522E-06
 -1        50 2.88228E-06
 -1        51 1.23746E-08
 -1        52 2.84532E-06
 -1        53 1.23746E-08
 -1        54 2.88239E-06
 -3
    1PSTEP                        11           6           1          
  100CL  106 1.41875E-04          40                     1    6           1
 -4  DISP        4    1
 -5  D1          1    2    1    0
 -5  D2          1    2    2    0
 -5  D3          1    2    3    0
 -5  ALL         1    2    0    0    1ALL
 -1         7-2.44287E-06 4.58281E-07-4.45487E-03
 -1         8 2.44287E-06 4.58281E-07 4.45487E-03
 -1         9 2.44287E-06-4.58281E-07 4.45487E-03
 -1        10-2.44287E-06-4.58281E-07-4.45487E-03
 -1        11 0.00000E+00 4.58281E-07 0.00000E+00
 -1        12 2.44287E-06 0.00000E+00 4.45487E-03
 -1        13 0.00000E+00-4.58281E-07 0.00000E+00
 -1        14-2.44287E-06 0.00000E+00-4.45487E-03
 -1        15-1.42111E-02 4.45305E-07-4.88879E-03
 -1        16-1.42055E-02 4.45305E-07 4.89323E-03
 -1        17-1.42055E-02-4.45305E-07 4.89323E-03
 -1        18-1.42111E-02-4.45305E-07-4.88879E-03
 -1        23-2.93860E-02 4.39080E-07-5.10102E-03
 -1        24-2.93799E-02 4.39080E-07 5.11200E-03
 -1        25-2.93799E-02-4.39080E-07 5.11200E-03
 -1        26-2.93860E-02-4.39080E-07-5.10102E-03
 -1        27-2.93829E-02 4.39080E-07 5.49033E-06
 -1        28-2.93799E-02 0.00000E+00 5.11200E-03
 -1        29-2.93829E-02-4.39080E-07 5.49033E-06
 -1        30-2.93860E-02 0.00000E+00-5.10102E-03
 -1        31-2.93838E-02 4.99348E-07 1.93037E-03
 -1        32-2.93821E-02 4.99348E-07-1.91939E-03
 -1        33-2.93821E-02-4.99348E-07-1.91939E-03
 -1        34-2.93838E-02-4.99348E-07 1.93037E-03
 -1        35-2.93829E-02 4.99348E-07 5.49033E-06
 -1        36-2.93821E-02 0.00000E+00-1.91939E-03
 -1        37-2.93829E-02-4.99348E-07 5.49033E-06
 -1        38-2.93838E-02 0.00000E+00 1.93037E-03
 -1        39 4.61550E-03 2.04174E-07 3.11769E-04
 -1        40 4.61593E-03 2.04174E-07-3.59613E-04
 -1        41 4.61593E-03-2.04174E-07-3.59613E-04
 -1        42 4.61550E-03-2.04174E-07 3.11769E-04
 -1        47-9.24286E-03 6.09210E-08-1.28812E-03
 -1        48-9.24243E-03 6.09210E-08 1.21887E-03
 -1        49-9.24243E-03-6.09210E-08 1.21887E-03
 -1        50-9.24286E-03-6.09210E-08-1.28812E-03
 -1        51-9.24265E-03 6.09210E-08-3.46227E-05
 -1        52-9.24243E-03 0.00000E+00 1.21887E-03
 -1        53-9.24265E-03-6.09210E-08-3.46227E-05
 -1        54-9.24286E-03 0.00000E+00-1.28812E-03
 -3
    1PSTEP                        12           6           1          
  100CL  106 1.41875E-04          40                     1    6           1
 -4  ENER        1    1
 -5  ENER        1    1    0    0
 -1         7 1.84634E-04
 -1         8 1.80181E-04
 -1         9 1.80181E-04
 -1        10 1.84634E-04
 -1        11 2.12246E-05
 -1        12 1.80184E-04
 -1        13 2.12246E-05
 -1        14 1.84637E-04
 -1        15 7.18612E-05
 -1        16 6.92832E-05
 -1        17 6.92832E-05
 -1        18 7.18612E-05
 -1        23 9.12380E-06
 -1        24 8.30107E-06
 -1        25 8.30107E-06
 -1        26 9.12380E-06
 -1        27 1.95725E-05
 -1        28 8.30426E-06
 -1        29 1.95725E-05
 -1        30 9.12699E-06
 -1        31 1.58820E-05
 -1        32 1.44699E-05
 -1        33 1.44699E-05
 -1        34 1.58820E-05
 -1        35 6.64959E-08
 -1        36 1.44704E-05
 -1        37 6.64959E-08
 -1        38 1.58826E-05
 -1        39 1.54001E-05
 -1        40 1.48240E-05
 -1        41 1.48240E-05
 -1        42 1.54001E-05
 -1        47 1.52533E-05
 -1        48 1.50806E-05
 -1        49 1.50806E-05
 -1        50 1.52533E-05
 -1        51 5.74931E-08
 -1        52 1.50812E-05
 -1        53 5.74931E-08
 -1        54 1.52538E-05
 -3
    1PSTEP                        13           7           1          
  100CL  107 2.17813E-04          40                     1    7           1
 -4  DISP        4    1
 -5  D1          1    2    1    0
 -5  D2          1    2    2    0
 -5  D3          1    2    3    0
 -5  ALL         1    2    0    0    1ALL
 -1         7-4.94722E-06 2.69598E-07-6.83931E-03
 -1         8 4.94722E-06 2.69598E-07 6.83931E-03
 -1         9 4.94722E-06-2.69598E-07 6.83931E-03
 -1        10-4.94722E-06-2.69598E-07-6.83931E-03
 -1        11 0.00000E+00 2.69598E-07 0.00000E+00
 -1        12 4.94722E-06 0.00000E+00 6.83931E-03
 -1        13 0.00000E+00-2.69598E-07 0.00000E+00
 -1        14-4.94722E-06 0.00000E+00-6.83931E-03
 -1        15-2.21140E-02 2.54336E-07-7.64270E-03
 -1        16-2.21018E-02 2.54336E-07 7.67010E-03
 -1        17-2.21018E-02-2.54336E-07 7.67010E-03
 -1        18-2.21140E-02-2.54336E-07-7.64270E-03
 -1        23-4.60160E-02 2.62667E-07-8.02515E-03
 -1        24-4.60025E-02 2.62667E-07 8.08558E-03
 -1        25-4.60025E-02-2.62667E-07 8.08558E-03
 -1        26-4.60160E-02-2.62667E-07-8.02515E-03
 -1        27-4.60092E-02 2.62667E-07 3.02174E-05
 -1        28-4.60025E-02 0.00000E+00 8.08558E-03
 -1        29-4.60092E-02-2.62667E-07 3.02174E-05
 -1        30-4.60160E-02 0.00000E+00-8.02515E-03
 -1        31-4.60104E-02 3.68977E-07 2.95909E-03
 -1        32-4.60080E-02 3.68977E-07-2.89866E-03
 -1        33-4.60080E-02-3.68977E-07-2.89866E-03
 -1        34-4.60104E-02-3.68977E-07 2.95909E-03
 -1        35-4.60092E-02 3.68977E-07 3.02174E-05
 -1        36-4.60080E-02 0.00000E+00-2.89866E-03
 -1        37-4.60092E-02-3.68977E-07 3.02174E-05
 -1        38-4.60104E-02 0.00000E+00 2.95909E-03
 -1        39 6.37067E-03 7.50893E-08 5.75616E-04
 -1        40 6.37088E-03 7.50893E-08-5.32759E-04
 -1        41 6.37088E-03-7.50893E-08-5.32759E-04
 -1        42 6.37067E-03-7.50893E-08 5.75616E-04
 -1        47-1.27606E-02 1.20434E-07-1.80336E-03
 -1        48-1.27597E-02 1.20434E-07 1.83764E-03
 -1        49-1.27597E-02-1.20434E-07 1.83764E-03
 -1        50-1.27606E-02-1.20434E-07-1.80336E-03
 -1        51-1.27601E-02 1.20434E-07 1.71422E-05
 -1        52-1.27597E-02 0.00000E+00 1.83764E-03
 -1        53-1.27601E-02-1.20434E-07 1.71422E-05
 -1        54-1.27606E-02 0.00000E+00-1.80336E-03
 -3
    1PSTEP                        14           7           1          
  100CL  107 2.17813E-04          40                     1    7           1
 -4  ENER        1    1
 -5  ENER        1    1    0    0
 -1         7 6.47416E-04
 -1         8 6.42498E-04
 -1         9 6.42498E-04
 -1        10 6.47416E-04
 -1        11 7.77347E-05
 -1        12 6.42510E-04
 -1        13 7.77347E-05
 -1        14 6.47427E-04
 -1        15 2.47884E-04
 -1        16 2.45142E-04
 -1        17 2.45142E-04
 -1        18 2.47884E-04
 -1        23 2.83737E-05
 -1        24 2.74597E-05
 -1        25 2.74597E-05
 -1        26 2.83737E-05
 -1        27 6.91054E-05
 -1        28 2.74709E-05
 -1        29 6.91054E-05
 -1        30 2.83850E-05
 -1        31 3.46471E-05
 -1        32 3.30860E-05
 -1        33 3.30860E-05
 -1        34 3.46471E-05
 -1        35 1.29004E-07
 -1        36 3.30872E-05
 -1        37 1.29004E-07
 -1        38 3.46484E-05
 -1        39 3.38968E-05
 -1        40 3.35820E-05
 -1        41 3.35820E-05
 -1        42 3.38968E-05
 -1        47 3.41203E-05
 -1        48 3.36090E-05
 -1        49 3.36090E-05
 -1        50 3.41203E-05
 -1        51 1.27083E-07
 -1        52 3.36102E-05
 -1        53 1.27083E-07
 -1        54 3.41215E-05
 -3
    1PSTEP                        15           8           1          
  100CL  108 3.31719E-04          40                     1    8           1
 -4  DISP        4    1
 -5  D1          1    2    1    0
 -5  D2          1    2    2    0
 -5  D3          1    2    3    0
 -5  ALL         1    2    0    0    1ALL
 -1         7-1.07641E-05-8.51064E-08-1.04160E-02
 -1         8 1.07641E-05-8.51064E-08 1.04160E-02
 -1         9 1.07641E-05 8.51064E-08 1.04160E-02
 -1        10-1.07641E-05 8.51064E-08-1.04160E-02
 -1        11 0.00000E+00-8.51064E-08 0.00000E+00
 -1        12 1.07641E-05 0.00000E+00 1.04160E-02
 -1        13 0.00000E+00 8.51064E-08 0.00000E+00
 -1        14-1.07641E-05 0.00000E+00-1.04160E-02
 -1        15-2.98539E-02-9.60033E-08-9.65968E-03
 -1        16-2.98353E-02-9.60033E-08 9.72091E-03
 -1        17-2.98353E-02 9.60033E-08 9.72091E-03
 -1        18-2.98539E-02 9.60033E-08-9.65968E-03
 -1        23-5.80877E-02-8.81892E-08-9.27329E-03
 -1        24-5.80704E-02-8.81892E-08 9.38961E-03
 -1        25-5.80704E-02 8.81892E-08 9.38961E-03
 -1        26-5.80877E-02 8.81892E-08-9.27329E-03
 -1        27-5.80790E-02-8.81892E-08 5.81582E-05
 -1        28-5.80704E-02 0.00000E+00 9.38961E-03
 -1        29-5.80790E-02 8.81892E-08 5.81582E-05
 -1        30-5.80877E-02 0.00000E+00-9.27329E-03
 -1        31-5.80802E-02 1.61575E-08 3.43302E-03
 -1        32-5.80779E-02 1.61575E-08-3.31670E-03
 -1        33-5.80779E-02-1.61575E-08-3.31670E-03
 -1        34-5.80802E-02-1.61575E-08 3.43302E-03
 -1        35-5.80790E-02 1.61575E-08 5.81582E-05
 -1        36-5.80779E-02 0.00000E+00-3.31670E-03