    1C
    1UUSER                                                              
    1UDATE              23.february.2024                                
    1UTIME              17:09:04                                        
    1UHOST                                                              
    1UPGM               CalculiX                                        
    1UVERSION           Version DEVELOPMENT                             
    1UCOMPILETIME       Fri Feb 23 17:06:32 CET 2024                    
    1UDIR                                                               
    1UDBN                                                               
    1UMAT    1HY                                                        
    2C                            21                                     1
 -1         1 0.00000E+00 1.00000E+00 0.00000E+00
 -1         2 1.00000E+00 1.00000E+00 0.00000E+00
 -1         3 1.00000E+00 5.00000E-01 0.00000E+00
 -1         4 0.00000E+00 5.00000E-01 0.00000E+00
 -1         5 5.00000E-01 1.00000E+00 0.00000E+00
 -1         6 1.00000E+00 7.50000E-01 0.00000E+00
 -1         7 5.00000E-01 5.00000E-01 0.00000E+00
 -1         8 0.00000E+00 7.50000E-01 0.00000E+00
 -1         9 1.00000E+00 0.00000E+00 0.00000E+00
 -1        10 0.00000E+00 0.00000E+00 0.00000E+00
 -1        11 1.00000E+00 2.50000E-01 0.00000E+00
 -1        12 5.00000E-01 0.00000E+00 0.00000E+00
 -1        13 0.00000E+00 2.50000E-01 0.00000E+00
 -1        14 2.00000E+00 1.00000E+00 0.00000E+00
 -1        15 2.00000E+00 5.00000E-01 0.00000E+00
 -1        16 1.50000E+00 1.00000E+00 0.00000E+00
 -1        17 2.00000E+00 7.50000E-01 0.00000E+00
 -1        18 1.50000E+00 5.00000E-01 0.00000E+00
 -1        19 2.00000E+00 0.00000E+00 0.00000E+00
 -1        20 2.00000E+00 2.50000E-01 0.00000E+00
 -1        21 1.50000E+00 0.00000E+00 0.00000E+00
 -3
    3C                             4                                     1
 -1         1   10    0    1
 -2         1         4         3         2         8         7         6         5
 -1         2   10    0    1
 -2         4        10         9         3        13        12        11         7
 -1         3   10    0    1
 -2         2         3        15        14         6        18        17        16
 -1         4   10    0    1
 -2         3         9        19        15        11        21        20        18
 -3
    1PSTEP                         1           1           2          
  100CL  105 0.00000E+00          21                     3    5           1
 -4  NORM        4    1
 -5  NORMX       1    2    1    0
 -5  NORMY       1    2    2    0
 -5  NORMZ       1    2    3    0
 -5  ALL         1    2    0    0    1ALL
 -1         1 0.00000E+00 1.00000E+00 0.00000E+00
 -1         2 0.00000E+00 1.00000E+00 0.00000E+00
 -1         3 0.00000E+00 0.00000E+00 0.00000E+00
 -1         4 0.00000E+00 0.00000E+00 0.00000E+00
 -1         5 0.00000E+00 1.00000E+00 0.00000E+00
 -1         6 0.00000E+00 0.00000E+00 0.00000E+00
 -1         7 0.00000E+00 0.00000E+00 0.00000E+00
 -1         8 0.00000E+00 0.00000E+00 0.00000E+00
 -1         9 0.00000E+00-1.00000E+00 0.00000E+00
 -1        10 0.00000E+00-1.00000E+00 0.00000E+00
 -1        11 0.00000E+00 0.00000E+00 0.00000E+00
 -1        12 0.00000E+00-1.00000E+00 0.00000E+00
 -1        13 0.00000E+00 0.00000E+00 0.00000E+00
 -1        14 7.07107E-01 7.07107E-01 0.00000E+00
 -1        15 1.00000E+00 0.00000E+00 0.00000E+00
 -1        16 0.00000E+00 1.00000E+00 0.00000E+00
 -1        17 1.00000E+00 0.00000E+00 0.00000E+00
 -1        18 0.00000E+00 0.00000E+00 0.00000E+00
 -1        19 7.07107E-01-7.07107E-01 0.00000E+00
 -1        20 1.00000E+00 0.00000E+00 0.00000E+00
 -1        21 0.00000E+00-1.00000E+00 0.00000E+00
 -3
    1PSTEP                         2           1           3          
  100CL  108 0.00000E+00          21                     3    8           1
 -4  FEASDIR     2    1
 -5  DFDN        1    1    1    0
 -5  DFDNFIL     1    1    2    0
 -1         1 0.00000E+00 0.00000E+00
 -1         2 0.00000E+00 0.00000E+00
 -1         3 0.00000E+00 0.00000E+00
 -1         4 0.00000E+00 0.00000E+00
 -1         5 0.00000E+00 0.00000E+00
 -1         6 0.00000E+00 0.00000E+00
 -1         7 0.00000E+00 0.00000E+00
 -1         8 0.00000E+00 0.00000E+00
 -1         9-1.48737E-01-2.39793E-01
 -1        10 3.22799E-01 5.20414E-01
 -1        11 0.00000E+00 0.00000E+00
 -1        12 3.22799E-01 5.20414E-01
 -1        13 0.00000E+00 0.00000E+00
 -1        14 0.00000E+00 0.00000E+00
 -1        15 0.00000E+00 0.00000E+00
 -1        16 0.00000E+00 0.00000E+00
 -1        17 0.00000E+00 0.00000E+00
 -1        18 0.00000E+00 0.00000E+00
 -1        19-6.20274E-01-1.00000E+00
 -1        20 0.00000E+00 0.00000E+00
 -1        21-6.20274E-01-1.00000E+00
 -3
 9999
