    1C
    1UUSER                                                              
    1UDATE              09.may.2023                                     
    1UTIME              19:43:08                                        
    1UHOST                                                              
    1UPGM               CalculiX                                        
    1UVERSION           Version DEVELOPMENT                             
    1UCOMPILETIME       Tue May  9 18:09:30 CEST 2023                    
    1UDIR                                                               
    1UDBN                                                               
    1UMAT    1EL                                                        
    2C                            21                                     1
 -1         1 0.00000E+00 1.00000E+00 0.00000E+00
 -1         2 1.00000E+00 1.00000E+00 0.00000E+00
 -1         3 1.00000E+00 5.00000E-01 0.00000E+00
 -1         4 0.00000E+00 5.00000E-01 0.00000E+00
 -1         5 5.00000E-01 1.00000E+00 0.00000E+00
 -1         6 1.00000E+00 7.50000E-01 0.00000E+00
 -1         7 5.00000E-01 5.00000E-01 0.00000E+00
 -1         8 0.00000E+00 7.50000E-01 0.00000E+00
 -1         9 1.00000E+00 0.00000E+00 0.00000E+00
 -1        10 0.00000E+00 0.00000E+00 0.00000E+00
 -1        11 1.00000E+00 2.50000E-01 0.00000E+00
 -1        12 5.00000E-01 0.00000E+00 0.00000E+00
 -1        13 0.00000E+00 2.50000E-01 0.00000E+00
 -1        14 2.00000E+00 1.00000E+00 0.00000E+00
 -1        15 2.00000E+00 5.00000E-01 0.00000E+00
 -1        16 1.50000E+00 1.00000E+00 0.00000E+00
 -1        17 2.00000E+00 7.50000E-01 0.00000E+00
 -1        18 1.50000E+00 5.00000E-01 0.00000E+00
 -1        19 2.00000E+00 0.00000E+00 0.00000E+00
 -1        20 2.00000E+00 2.50000E-01 0.00000E+00
 -1        21 1.50000E+00 0.00000E+00 0.00000E+00
 -3
    3C                             4                                     1
 -1         1   10    0    1
 -2         1         4         3         2         8         7         6         5
 -1         2   10    0    1
 -2         4        10         9         3        13        12        11         7
 -1         3   10    0    1
 -2         2         3        15        14         6        18        17        16
 -1         4   10    0    1
 -2         3         9        19        15        11        21        20        18
 -3
    1PSTEP                         1           1           1          
  100CL  101 1.000000000          21                     0    1           1
 -4  DISP        4    1
 -5  D1          1    2    1    0
 -5  D2          1    2    2    0
 -5  D3          1    2    3    0
 -5  ALL         1    2    0    0    1ALL
 -1         1 0.00000E+00-1.90394E-03 2.03288E-20
 -1         2 3.62173E-03-7.59204E-03 4.02341E-21
 -1         3 7.14286E-05-6.77324E-03 1.18585E-20
 -1         4 0.00000E+00 0.00000E+00-8.25857E-21
 -1         5 2.41579E-03-3.36015E-03 2.54788E-18
 -1         6 1.71356E-03-7.12026E-03 1.97697E-18
 -1         7 3.57143E-05-3.30883E-03 1.91768E-18
 -1         8 0.00000E+00-9.14585E-04-1.52720E-18
 -1         9-3.47888E-03-7.35394E-03-1.33408E-19
 -1        10 0.00000E+00-1.66584E-03 1.08420E-19
 -1        11-1.57070E-03-7.00122E-03-2.06676E-18
 -1        12-2.34436E-03-3.12206E-03 2.42590E-18
 -1        13 0.00000E+00-7.95537E-04 1.32137E-18
 -1        14 4.21311E-03-1.59343E-02 5.75982E-20
 -1        15 1.42857E-04-1.53556E-02 3.68459E-20
 -1        16 4.11753E-03-1.14628E-02-2.37169E-18
 -1        17 2.12640E-03-1.56487E-02-1.54668E-18
 -1        18 1.07143E-04-1.14143E-02 7.58942E-19
 -1        19-3.92740E-03-1.56963E-02 3.04932E-20
 -1        20-1.84069E-03-1.55297E-02 1.03253E-18
 -1        21-3.90324E-03-1.12247E-02-1.52593E-18
 -3
    1PSTEP                         2           1           1          
  100CL  101 1.000000000          21                     0    1           1
 -4  STRESS      6    1
 -5  SXX         1    4    1    1
 -5  SYY         1    4    2    2
 -5  SZZ         1    4    3    3
 -5  SXY         1    4    1    2
 -5  SYZ         1    4    2    3
 -5  SZX         1    4    3    1
 -1         1 1.22603E+03-1.16808E+02 3.67366E+01 5.54494E+01 1.53477E-12 1.08527E-12
 -1         2 2.36385E+02-1.04361E+02-3.47462E+00-4.05732E+01-2.14628E-12-1.48725E-12
 -1         3 2.01728E-12-4.99980E+01 5.11295E-13-1.59419E+02 1.07958E-12-4.55469E-14
 -1         4 2.69769E-12-4.99980E+01-1.76451E-13-4.55437E+02-6.10179E-13 6.31495E-13
 -1         5 7.22936E+02-6.98907E+01 6.59723E+00-6.31949E+01 2.34479E-13-4.97380E-14
 -1         6 1.31797E+02-2.93616E+01 1.82351E+00-9.99960E+01-1.52545E-13-7.07434E-13
 -1         7 2.96296E-12-4.99980E+01-5.59552E-13-2.36793E+02 4.35207E-14 5.90639E-14
 -1         8 5.36959E+02-2.75380E+02-1.21200E+01-1.99994E+02 3.74811E-13 9.10383E-13
 -1         9-2.36385E+02 4.36464E+00 3.47462E+00-4.05732E+01 7.12985E-13-3.87246E-13
 -1        10-1.22603E+03 1.68116E+01-3.67366E+01 5.54494E+01 7.81597E-14 3.98015E-13
 -1        11-1.31797E+02-7.06344E+01-1.82351E+00-9.99960E+01 5.15588E-13-2.76223E-13
 -1        12-7.22936E+02-3.01053E+01-6.59723E+00-6.31949E+01-5.08038E-13-1.86517E-14
 -1        13-5.36959E+02 1.75384E+02 1.21200E+01-1.99994E+02-1.77636E-13 4.62741E-13
 -1        14-5.73678E+01-7.44552E+01-8.43572E+00-6.20119E+01 2.23155E-12 1.78968E-12
 -1        15-6.46298E-13-4.99980E+01-8.07946E-13 6.20153E+01-2.39608E-12-3.70537E-13
 -1        16 9.77805E+01-1.30101E+02 4.07857E+00 1.93405E+01-4.98934E-13 0.00000E+00
 -1        17-2.13181E+01-6.58812E+01 4.99201E+00 1.68801E-03-1.86673E-12 5.28022E-13
 -1        18 7.81597E-14-4.99980E+01 5.79536E-13-1.19336E+02-4.66516E-13 2.58127E-14
 -1        19 5.73678E+01-2.55408E+01 8.43572E+00-6.20119E+01-3.99458E-12 5.91971E-13
 -1        20 2.13181E+01-3.41148E+01-4.99201E+00 1.68801E-03-1.41087E-12 2.92211E-13
 -1        21-9.77805E+01 3.01053E+01-4.07857E+00 1.93405E+01-7.36966E-13 1.26787E-13
 -3
    1PSTEP                         3           1           1          
  100CL  101 1.000000000          21                     0    1           1
 -4  ENER        1    1
 -5  ENER        1    1    0    0
 -1         1 2.54948E+00
 -1         2 4.85923E-02
 -1         3 8.26885E-02
 -1         4 4.99614E-01
 -1         5 1.25449E+00
 -1         6 5.54813E-02
 -1         7 1.90689E-01
 -1         8 1.56264E+00
 -1         9-1.05676E-02
 -1        10 2.33727E+00
 -1        11 4.62196E-02
 -1        12 1.14080E+00
 -1        13 1.38034E+00
 -1        14-1.56813E-03
 -1        15-6.66751E-02
 -1        16 6.80588E-02
 -1        17-3.20675E-02
 -1        18 1.08469E-01
 -1        19-3.81391E-03
 -1        20-3.72986E-02
 -1        21 1.53631E-02
 -3
    1PSTEP                         4           1           1          
  100CL  101 1.000000000          21                     0    1           1
 -4  ERROR       1    1
 -5  STR(%)      1    1    0    0
 -1         1 4.13485E+01
 -1         2 4.13485E+01
 -1         3 4.42430E+01
 -1         4 4.13485E+01
 -1         5 4.13485E+01
 -1         6 4.27957E+01
 -1         7 4.27957E+01
 -1         8 4.13485E+01
 -1         9 4.42430E+01
 -1        10 3.84078E+01
 -1        11 4.42430E+01
 -1        12 4.13254E+01
 -1        13 3.98781E+01
 -1        14 3.45597E+01
 -1        15 4.42430E+01
 -1        16 3.79541E+01
 -1        17 3.94013E+01
 -1        18 4.42430E+01
 -1        19 4.42430E+01
 -1        20 4.42430E+01
 -1        21 4.42430E+01
 -3
    1PSTEP                         1           1           2          
  100CL  102 0.00000E+00          21                     3    2           1
 -4  NORM        4    1
 -5  NORMX       1    2    1    0
 -5  NORMY       1    2    2    0
 -5  NORMZ       1    2    3    0
 -5  ALL         1    2    0    0    1ALL
 -1         1 0.00000E+00 1.00000E+00 0.00000E+00
 -1         2 0.00000E+00 1.00000E+00 0.00000E+00
 -1         3 0.00000E+00 0.00000E+00 0.00000E+00
 -1         4 0.00000E+00 0.00000E+00 0.00000E+00
 -1         5 0.00000E+00 1.00000E+00 0.00000E+00
 -1         6 0.00000E+00 0.00000E+00 0.00000E+00
 -1         7 0.00000E+00 0.00000E+00 0.00000E+00
 -1         8 0.00000E+00 0.00000E+00 0.00000E+00
 -1         9 0.00000E+00-1.00000E+00 0.00000E+00
 -1        10 0.00000E+00-1.00000E+00 0.00000E+00
 -1        11 0.00000E+00 0.00000E+00 0.00000E+00
 -1        12 0.00000E+00-1.00000E+00 0.00000E+00
 -1        13 0.00000E+00 0.00000E+00 0.00000E+00
 -1        14 7.07107E-01 7.07107E-01 0.00000E+00
 -1        15 1.00000E+00 0.00000E+00 0.00000E+00
 -1        16 0.00000E+00 1.00000E+00 0.00000E+00
 -1        17 1.00000E+00 0.00000E+00 0.00000E+00
 -1        18 0.00000E+00 0.00000E+00 0.00000E+00
 -1        19 7.07107E-01-7.07107E-01 0.00000E+00
 -1        20 1.00000E+00 0.00000E+00 0.00000E+00
 -1        21 0.00000E+00-1.00000E+00 0.00000E+00
 -3
    1PSTEP                         2           1           2          
  100CL  103 0.00000E+00          21                     3    3           1
 -4  SENMASS     2    1
 -5  DFDN        1    1    1    0
 -5  DFDNFIL     1    1    2    0
 -1         1 0.00000E+00 0.00000E+00
 -1         2 0.00000E+00 0.00000E+00
 -1         3 0.00000E+00 0.00000E+00
 -1         4 0.00000E+00 0.00000E+00
 -1         5 0.00000E+00 0.00000E+00
 -1         6 0.00000E+00 0.00000E+00
 -1         7 0.00000E+00 0.00000E+00
 -1         8 0.00000E+00 0.00000E+00
 -1         9 1.56000E-08 4.47214E-01
 -1        10 1.56000E-08 4.47214E-01
 -1        11 0.00000E+00 0.00000E+00
 -1        12 1.56000E-08 4.47214E-01
 -1        13 0.00000E+00 0.00000E+00
 -1        14 0.00000E+00 0.00000E+00
 -1        15 0.00000E+00 0.00000E+00
 -1        16 0.00000E+00 0.00000E+00
 -1        17 0.00000E+00 0.00000E+00
 -1        18 0.00000E+00 0.00000E+00
 -1        19 1.56000E-08 4.47214E-01
 -1        20 0.00000E+00 0.00000E+00
 -1        21 1.56000E-08 4.47214E-01
 -3
    1PSTEP                         3           1           2          
  100CL  104 0.00000E+00          21                     3    4           1
 -4  SENDISY     2    1
 -5  DFDN        1    1    1    0
 -5  DFDNFIL     1    1    2    0
 -1         1 0.00000E+00 0.00000E+00
 -1         2 0.00000E+00 0.00000E+00
 -1         3 0.00000E+00 0.00000E+00
 -1         4 0.00000E+00 0.00000E+00
 -1         5 0.00000E+00 0.00000E+00
 -1         6 0.00000E+00 0.00000E+00
 -1         7 0.00000E+00 0.00000E+00
 -1         8 0.00000E+00 0.00000E+00
 -1         9-1.70582E-01-3.41998E-01
 -1        10-3.31275E-01-6.64173E-01
 -1        11 0.00000E+00 0.00000E+00
 -1        12-3.31275E-01-6.64173E-01
 -1        13 0.00000E+00 0.00000E+00
 -1        14 0.00000E+00 0.00000E+00
 -1        15 0.00000E+00 0.00000E+00
 -1        16 0.00000E+00 0.00000E+00
 -1        17 0.00000E+00 0.00000E+00
 -1        18 0.00000E+00 0.00000E+00
 -1        19-9.88769E-03-1.98238E-02
 -1        20 0.00000E+00 0.00000E+00
 -1        21-9.88769E-03-1.98238E-02
 -3
    1PSTEP                         4           1           2          
  100CL  105 0.00000E+00          21                     3    5           1
 -4  SENENER     2    1
 -5  DFDN        1    1    1    0
 -5  DFDNFIL     1    1    2    0
 -1         1 0.00000E+00 0.00000E+00
 -1         2 0.00000E+00 0.00000E+00
 -1         3 0.00000E+00 0.00000E+00
 -1         4 0.00000E+00 0.00000E+00
 -1         5 0.00000E+00 0.00000E+00
 -1         6 0.00000E+00 0.00000E+00
 -1         7 0.00000E+00 0.00000E+00
 -1         8 0.00000E+00 0.00000E+00
 -1         9-4.07987E+00-3.27833E-01
 -1        10 1.52472E-01 1.22517E-02
 -1        11 0.00000E+00 0.00000E+00
 -1        12 1.52472E-01 1.22517E-02
 -1        13 0.00000E+00 0.00000E+00
 -1        14 0.00000E+00 0.00000E+00
 -1        15 0.00000E+00 0.00000E+00
 -1        16 0.00000E+00 0.00000E+00
 -1        17 0.00000E+00 0.00000E+00
 -1        18 0.00000E+00 0.00000E+00
 -1        19-8.31221E+00-6.67917E-01
 -1        20 0.00000E+00 0.00000E+00
 -1        21-8.31221E+00-6.67917E-01
 -3
 9999
