    1C
    1UUSER                                                              
    1UDATE              03.november.2023                                
    1UTIME              11:24:40                                        
    1UHOST                                                              
    1UPGM               CalculiX                                        
    1UVERSION           Version DEVELOPMENT                             
    1UCOMPILETIME       Fri Nov  3 11:22:12 CET 2023                    
    1UDIR                                                               
    1UDBN                                                               
    1UMAT    1HY                                                        
    2C                            21                                     1
 -1         1 0.00000E+00 1.00000E+00 0.00000E+00
 -1         2 1.00000E+00 1.00000E+00 0.00000E+00
 -1         3 1.00000E+00 5.00000E-01 0.00000E+00
 -1         4 0.00000E+00 5.00000E-01 0.00000E+00
 -1         5 5.00000E-01 1.00000E+00 0.00000E+00
 -1         6 1.00000E+00 7.50000E-01 0.00000E+00
 -1         7 5.00000E-01 5.00000E-01 0.00000E+00
 -1         8 0.00000E+00 7.50000E-01 0.00000E+00
 -1         9 1.00000E+00 0.00000E+00 0.00000E+00
 -1        10 0.00000E+00 0.00000E+00 0.00000E+00
 -1        11 1.00000E+00 2.50000E-01 0.00000E+00
 -1        12 5.00000E-01 0.00000E+00 0.00000E+00
 -1        13 0.00000E+00 2.50000E-01 0.00000E+00
 -1        14 2.00000E+00 1.00000E+00 0.00000E+00
 -1        15 2.00000E+00 5.00000E-01 0.00000E+00
 -1        16 1.50000E+00 1.00000E+00 0.00000E+00
 -1        17 2.00000E+00 7.50000E-01 0.00000E+00
 -1        18 1.50000E+00 5.00000E-01 0.00000E+00
 -1        19 2.00000E+00 0.00000E+00 0.00000E+00
 -1        20 2.00000E+00 2.50000E-01 0.00000E+00
 -1        21 1.50000E+00 0.00000E+00 0.00000E+00
 -3
    3C                             4                                     1
 -1         1   10    0    1
 -2         1         4         3         2         8         7         6         5
 -1         2   10    0    1
 -2         4        10         9         3        13        12        11         7
 -1         3   10    0    1
 -2         2         3        15        14         6        18        17        16
 -1         4   10    0    1
 -2         3         9        19        15        11        21        20        18
 -3
    1PSTEP                         1           4           1          
  100CL  101 1.000000000          21                     0    1           1
 -4  DISP        4    1
 -5  D1          1    2    1    0
 -5  D2          1    2    2    0
 -5  D3          1    2    3    0
 -5  ALL         1    2    0    0    1ALL
 -1         1 0.00000E+00-1.68440E-02 9.75782E-19
 -1         2 2.92713E-02-6.14441E-02-7.53012E-19
 -1         3 1.75072E-04-5.90076E-02-7.11508E-20
 -1         4 0.00000E+00 0.00000E+00-8.26704E-19
 -1         5 2.62517E-02-3.19292E-02-8.45678E-18
 -1         6 1.46694E-02-6.03614E-02-1.42505E-17
 -1         7 1.02963E-03-2.82494E-02-1.08403E-17
 -1         8 0.00000E+00-6.54728E-03 1.24683E-17
 -1         9-2.92084E-02-5.93297E-02-5.35325E-19
 -1        10 0.00000E+00-1.32480E-02 8.67362E-19
 -1        11-1.43703E-02-5.93332E-02-8.48388E-18
 -1        12-2.48044E-02-2.90926E-02-7.58942E-19
 -1        13 0.00000E+00-4.69041E-03-2.60209E-18
 -1        14 2.86250E-02-1.22495E-01 2.14299E-18
 -1        15-1.55072E-03-1.20160E-01 5.09914E-19
 -1        16 2.92499E-02-9.11465E-02-2.42251E-18
 -1        17 1.33136E-02-1.21187E-01 1.68390E-17
 -1        18-7.53272E-04-9.04171E-02 1.21100E-17
 -1        19-3.18178E-02-1.20208E-01-3.20178E-19
 -1        20-1.65155E-02-1.20064E-01 2.73829E-17
 -1        21-3.06958E-02-8.89990E-02-2.56342E-17
 -3
    1PSTEP                         2           4           1          
  100CL  101 1.000000000          21                     0    1           1
 -4  STRESS      6    1
 -5  SXX         1    4    1    1
 -5  SYY         1    4    2    2
 -5  SZZ         1    4    3    3
 -5  SXY         1    4    1    2
 -5  SYZ         1    4    2    3
 -5  SZX         1    4    3    1
 -1         1 1.59736E+03 1.42589E+02 1.81420E+02 1.07535E+02-9.73444E-13-9.73444E-13
 -1         2 4.24885E+02-1.70532E+02-8.22725E+00-7.11078E+01 8.36842E-12 9.48575E-13
 -1         3-8.99069E+01-6.15133E+01-2.09932E+00-2.71306E+02-4.93783E-12 2.72096E-12
 -1         4 1.29704E+02-1.59209E+01 6.37951E+00-7.41892E+02 1.90781E-12-1.09157E-12
 -1         5 9.18310E+02-2.54519E+02-4.78050E+01-6.75581E+01 8.81073E-13 6.03961E-13
 -1         6 1.54768E+02-5.26590E+01 3.50941E-01-1.75970E+02-4.19487E-12 1.16174E-12
 -1         7 9.94251E+00-6.65972E+01 1.13516E+00-4.19612E+02-9.69891E-13-1.66978E-13
 -1         8 8.95795E+02-3.67611E+02-6.81782E+01-2.85564E+02 2.37321E-12-8.56204E-13
 -1         9-3.44292E+02 2.49525E+01 1.33033E+01-3.42747E+00 4.36273E-12-8.65086E-13
 -1        10-1.80940E+03-3.27544E+02-1.96920E+02 1.63711E+02 1.78701E-12-1.56319E-13
 -1        11-2.04379E+02-8.16443E+01 8.77922E-02-1.32603E+02 5.62217E-12 1.60227E-12
 -1        12-9.77115E+02 1.07139E+02 4.50777E+01-1.05340E+01-3.11218E-12 3.97904E-13
 -1        13-8.72112E+02 2.59212E+02 6.68078E+01-3.20705E+02-4.97380E-14-7.99361E-13
 -1        14-1.79124E+02-3.94808E+02-1.28837E+02-1.15617E+02-7.29017E-12 5.89173E-12
 -1        15 1.42715E+01-9.23844E+01-1.13724E-01 1.07997E+02-8.17124E-12-4.16067E-12
 -1        16 2.15692E+02-4.21236E+01 6.58696E+01-7.59065E+00 3.36087E-12 2.80442E-12
 -1        17 6.38690E+00-9.08634E+01 6.42670E+01-7.04224E+00-6.54055E-12 1.10911E-12
 -1        18-2.78619E+01-4.90688E+01-1.01586E-01-1.68642E+02-7.09832E-12 2.61569E-13
 -1        19 1.48883E+02 2.74586E+02 1.28973E+02-1.18779E+02 1.30136E-11 1.24782E-11
 -1        20-7.23579E+00-6.16320E+01-6.43127E+01-2.15821E+00 1.23102E-12 3.91509E-12
 -1        21-1.97435E+02-1.08665E+02-6.57481E+01 2.95725E+01 1.48770E-11 4.89409E-12
 -3
    1PSTEP                         3           4           1          
  100CL  101 1.000000000          21                     0    1           1
 -4  PE          1    1
 -5  PE          1    1    0    0
 -1         1 6.45364E-02
 -1         2-8.45194E-03
 -1         3-1.05801E-03
 -1         4 7.67763E-03
 -1         5 2.38164E-02
 -1         6-4.97045E-03
 -1         7 2.78038E-03
 -1         8 3.76307E-02
 -1         9-8.11777E-03
 -1        10 6.07801E-02
 -1        11-4.37241E-03
 -1        12 2.22724E-02
 -1        13 3.27052E-02
 -1        14 6.13228E-08
 -1        15-2.27986E-07
 -1        16-8.37810E-08
 -1        17-8.37810E-08
 -1        18 3.11429E-07
 -1        19 6.08414E-08
 -1        20-8.31233E-08
 -1        21-8.31233E-08
 -3
    1PSTEP                         4           4           1          
  100CL  101 1.000000000          21                     0    1           1
 -4  ERROR       1    1
 -5  STR(%)      1    1    0    0
 -1         1 2.91034E+01
 -1         2 5.59680E+01
 -1         3 6.15416E+01
 -1         4 3.09132E+01
 -1         5 4.25357E+01
 -1         6 5.87548E+01
 -1         7 4.62274E+01
 -1         8 3.00083E+01
 -1         9 6.15416E+01
 -1        10 3.09132E+01
 -1        11 6.15416E+01
 -1        12 4.62274E+01
 -1        13 3.09132E+01
 -1        14 5.59680E+01
 -1        15 6.15416E+01
 -1        16 5.59680E+01
 -1        17 5.87548E+01
 -1        18 6.15416E+01
 -1        19 6.15416E+01
 -1        20 6.15416E+01
 -1        21 6.15416E+01
 -3
    1PSTEP                         1           1           2          
  100CL  102 0.00000E+00          21                     3    2           1
 -4  NORM        4    1
 -5  NORMX       1    2    1    0
 -5  NORMY       1    2    2    0
 -5  NORMZ       1    2    3    0
 -5  ALL         1    2    0    0    1ALL
 -1         1 0.00000E+00 1.00000E+00 0.00000E+00
 -1         2 0.00000E+00 1.00000E+00 0.00000E+00
 -1         3 0.00000E+00 0.00000E+00 0.00000E+00
 -1         4 0.00000E+00 0.00000E+00 0.00000E+00
 -1         5 0.00000E+00 1.00000E+00 0.00000E+00
 -1         6 0.00000E+00 0.00000E+00 0.00000E+00
 -1         7 0.00000E+00 0.00000E+00 0.00000E+00
 -1         8 0.00000E+00 0.00000E+00 0.00000E+00
 -1         9 0.00000E+00-1.00000E+00 0.00000E+00
 -1        10 0.00000E+00-1.00000E+00 0.00000E+00
 -1        11 0.00000E+00 0.00000E+00 0.00000E+00
 -1        12 0.00000E+00-1.00000E+00 0.00000E+00
 -1        13 0.00000E+00 0.00000E+00 0.00000E+00
 -1        14 7.07107E-01 7.07107E-01 0.00000E+00
 -1        15 1.00000E+00 0.00000E+00 0.00000E+00
 -1        16 0.00000E+00 1.00000E+00 0.00000E+00
 -1        17 1.00000E+00 0.00000E+00 0.00000E+00
 -1        18 0.00000E+00 0.00000E+00 0.00000E+00
 -1        19 7.07107E-01-7.07107E-01 0.00000E+00
 -1        20 1.00000E+00 0.00000E+00 0.00000E+00
 -1        21 0.00000E+00-1.00000E+00 0.00000E+00
 -3
    1PSTEP                         2           1           2          
  100CL  103 0.00000E+00          21                     3    3           1
 -4  SENSPEQ     2    1
 -5  DFDN        1    1    1    0
 -5  DFDNFIL     1    1    2    0
 -1         1 0.00000E+00 0.00000E+00
 -1         2 0.00000E+00 0.00000E+00
 -1         3 0.00000E+00 0.00000E+00
 -1         4 0.00000E+00 0.00000E+00
 -1         5 0.00000E+00 0.00000E+00
 -1         6 0.00000E+00 0.00000E+00
 -1         7 0.00000E+00 0.00000E+00
 -1         8 0.00000E+00 0.00000E+00
 -1         9-1.50813E+02-3.32991E-01
 -1        10-3.01975E+02-6.66752E-01
 -1        11 0.00000E+00 0.00000E+00
 -1        12-3.01975E+02-6.66752E-01
 -1        13 0.00000E+00 0.00000E+00
 -1        14 0.00000E+00 0.00000E+00
 -1        15 0.00000E+00 0.00000E+00
 -1        16 0.00000E+00 0.00000E+00
 -1        17 0.00000E+00 0.00000E+00
 -1        18 0.00000E+00 0.00000E+00
 -1        19 3.48842E-01 7.70233E-04
 -1        20 0.00000E+00 0.00000E+00
 -1        21 3.48842E-01 7.70233E-04
 -3
    1PSTEP                         3           1           2          
  100CL  104 0.00000E+00          21                     3    4           1
 -4  SENMISE     2    1
 -5  DFDN        1    1    1    0
 -5  DFDNFIL     1    1    2    0
 -1         1 0.00000E+00 0.00000E+00
 -1         2 0.00000E+00 0.00000E+00
 -1         3 0.00000E+00 0.00000E+00
 -1         4 0.00000E+00 0.00000E+00
 -1         5 0.00000E+00 0.00000E+00
 -1         6 0.00000E+00 0.00000E+00
 -1         7 0.00000E+00 0.00000E+00
 -1         8 0.00000E+00 0.00000E+00
 -1         9-2.12617E+03-3.32884E-01
 -1        10-4.25879E+03-6.66778E-01
 -1        11 0.00000E+00 0.00000E+00
 -1        12-4.25879E+03-6.66778E-01
 -1        13 0.00000E+00 0.00000E+00
 -1        14 0.00000E+00 0.00000E+00
 -1        15 0.00000E+00 0.00000E+00
 -1        16 0.00000E+00 0.00000E+00
 -1        17 0.00000E+00 0.00000E+00
 -1        18 0.00000E+00 0.00000E+00
 -1        19 6.44851E+00 1.00961E-03
 -1        20 0.00000E+00 0.00000E+00
 -1        21 6.44851E+00 1.00961E-03
 -3
 9999
