    1C
    1C
    1UUSER
    1UDATE              01.november.2021    
    1UTIME              18:34:10
    1UHOST
    1UPGM               CalculiX
    1UDIR
    1UDBN
    2C                                                                   1
 -1         1 0.00000E+00 0.00000E+00 1.00000E-01
 -1         2 0.00000E+00 1.00000E-01 1.00000E-01
 -1         3 6.00000E-01 1.00000E-01 1.00000E-01
 -1         4 6.00000E-01 0.00000E+00 1.00000E-01
 -1         5 0.00000E+00 0.00000E+00 0.00000E+00
 -1         6 0.00000E+00 1.00000E-01 0.00000E+00
 -1         7 6.00000E-01 1.00000E-01 0.00000E+00
 -1         8 6.00000E-01 0.00000E+00 0.00000E+00
 -1         9 1.20000E+00 1.00000E-01 1.00000E-01
 -1        10 1.20000E+00 0.00000E+00 1.00000E-01
 -1        11 1.20000E+00 1.00000E-01 0.00000E+00
 -1        12 1.20000E+00 0.00000E+00 0.00000E+00
 -1        13 1.80000E+00 1.00000E-01 1.00000E-01
 -1        14 1.80000E+00 0.00000E+00 1.00000E-01
 -1        15 1.80000E+00 1.00000E-01 0.00000E+00
 -1        16 1.80000E+00 0.00000E+00 0.00000E+00
 -1        17 2.40000E+00 1.00000E-01 1.00000E-01
 -1        18 2.40000E+00 0.00000E+00 1.00000E-01
 -1        19 2.40000E+00 1.00000E-01 0.00000E+00
 -1        20 2.40000E+00 0.00000E+00 0.00000E+00
 -1        21 3.00000E+00 1.00000E-01 1.00000E-01
 -1        22 3.00000E+00 0.00000E+00 1.00000E-01
 -1        23 3.00000E+00 1.00000E-01 0.00000E+00
 -1        24 3.00000E+00 0.00000E+00 0.00000E+00
 -1        25 3.60000E+00 1.00000E-01 1.00000E-01
 -1        26 3.60000E+00 0.00000E+00 1.00000E-01
 -1        27 3.60000E+00 1.00000E-01 0.00000E+00
 -1        28 3.60000E+00 0.00000E+00 0.00000E+00
 -1        29 4.20000E+00 1.00000E-01 1.00000E-01
 -1        30 4.20000E+00 0.00000E+00 1.00000E-01
 -1        31 4.20000E+00 1.00000E-01 0.00000E+00
 -1        32 4.20000E+00 0.00000E+00 0.00000E+00
 -1        33 4.80000E+00 1.00000E-01 1.00000E-01
 -1        34 4.80000E+00 0.00000E+00 1.00000E-01
 -1        35 4.80000E+00 1.00000E-01 0.00000E+00
 -1        36 4.80000E+00 0.00000E+00 0.00000E+00
 -1        37 5.40000E+00 1.00000E-01 1.00000E-01
 -1        38 5.40000E+00 0.00000E+00 1.00000E-01
 -1        39 5.40000E+00 1.00000E-01 0.00000E+00
 -1        40 5.40000E+00 0.00000E+00 0.00000E+00
 -1        41 6.00000E+00 1.00000E-01 1.00000E-01
 -1        42 6.00000E+00 0.00000E+00 1.00000E-01
 -1        43 6.00000E+00 1.00000E-01 0.00000E+00
 -1        44 6.00000E+00 0.00000E+00 0.00000E+00
 -1        45 0.00000E+00 2.00000E-01 1.00000E-01
 -1        46 6.00000E-01 2.00000E-01 1.00000E-01
 -1        47 0.00000E+00 2.00000E-01 0.00000E+00
 -1        48 6.00000E-01 2.00000E-01 0.00000E+00
 -1        49 1.20000E+00 2.00000E-01 1.00000E-01
 -1        50 1.20000E+00 2.00000E-01 0.00000E+00
 -1        51 1.80000E+00 2.00000E-01 1.00000E-01
 -1        52 1.80000E+00 2.00000E-01 0.00000E+00
 -1        53 2.40000E+00 2.00000E-01 1.00000E-01
 -1        54 2.40000E+00 2.00000E-01 0.00000E+00
 -1        55 3.00000E+00 2.00000E-01 1.00000E-01
 -1        56 3.00000E+00 2.00000E-01 0.00000E+00
 -1        57 3.60000E+00 2.00000E-01 1.00000E-01
 -1        58 3.60000E+00 2.00000E-01 0.00000E+00
 -1        59 4.20000E+00 2.00000E-01 1.00000E-01
 -1        60 4.20000E+00 2.00000E-01 0.00000E+00
 -1        61 4.80000E+00 2.00000E-01 1.00000E-01
 -1        62 4.80000E+00 2.00000E-01 0.00000E+00
 -1        63 5.40000E+00 2.00000E-01 1.00000E-01
 -1        64 5.40000E+00 2.00000E-01 0.00000E+00
 -1        65 6.00000E+00 2.00000E-01 1.00000E-01
 -1        66 6.00000E+00 2.00000E-01 0.00000E+00
 -1        67 0.00000E+00 3.00000E-01 1.00000E-01
 -1        68 6.00000E-01 3.00000E-01 1.00000E-01
 -1        69 0.00000E+00 3.00000E-01 0.00000E+00
 -1        70 6.00000E-01 3.00000E-01 0.00000E+00
 -1        71 1.20000E+00 3.00000E-01 1.00000E-01
 -1        72 1.20000E+00 3.00000E-01 0.00000E+00
 -1        73 1.80000E+00 3.00000E-01 1.00000E-01
 -1        74 1.80000E+00 3.00000E-01 0.00000E+00
 -1        75 2.40000E+00 3.00000E-01 1.00000E-01
 -1        76 2.40000E+00 3.00000E-01 0.00000E+00
 -1        77 3.00000E+00 3.00000E-01 1.00000E-01
 -1        78 3.00000E+00 3.00000E-01 0.00000E+00
 -1        79 3.60000E+00 3.00000E-01 1.00000E-01
 -1        80 3.60000E+00 3.00000E-01 0.00000E+00
 -1        81 4.20000E+00 3.00000E-01 1.00000E-01
 -1        82 4.20000E+00 3.00000E-01 0.00000E+00
 -1        83 4.80000E+00 3.00000E-01 1.00000E-01
 -1        84 4.80000E+00 3.00000E-01 0.00000E+00
 -1        85 5.40000E+00 3.00000E-01 1.00000E-01
 -1        86 5.40000E+00 3.00000E-01 0.00000E+00
 -1        87 6.00000E+00 3.00000E-01 1.00000E-01
 -1        88 6.00000E+00 3.00000E-01 0.00000E+00
 -1        89 0.00000E+00 4.00000E-01 1.00000E-01
 -1        90 6.00000E-01 4.00000E-01 1.00000E-01
 -1        91 0.00000E+00 4.00000E-01 0.00000E+00
 -1        92 6.00000E-01 4.00000E-01 0.00000E+00
 -1        93 1.20000E+00 4.00000E-01 1.00000E-01
 -1        94 1.20000E+00 4.00000E-01 0.00000E+00
 -1        95 1.80000E+00 4.00000E-01 1.00000E-01
 -1        96 1.80000E+00 4.00000E-01 0.00000E+00
 -1        97 2.40000E+00 4.00000E-01 1.00000E-01
 -1        98 2.40000E+00 4.00000E-01 0.00000E+00
 -1        99 3.00000E+00 4.00000E-01 1.00000E-01
 -1       100 3.00000E+00 4.00000E-01 0.00000E+00
 -1       101 3.60000E+00 4.00000E-01 1.00000E-01
 -1       102 3.60000E+00 4.00000E-01 0.00000E+00
 -1       103 4.20000E+00 4.00000E-01 1.00000E-01
 -1       104 4.20000E+00 4.00000E-01 0.00000E+00
 -1       105 4.80000E+00 4.00000E-01 1.00000E-01
 -1       106 4.80000E+00 4.00000E-01 0.00000E+00
 -1       107 5.40000E+00 4.00000E-01 1.00000E-01
 -1       108 5.40000E+00 4.00000E-01 0.00000E+00
 -1       109 6.00000E+00 4.00000E-01 1.00000E-01
 -1       110 6.00000E+00 4.00000E-01 0.00000E+00
 -1       111 0.00000E+00 5.00000E-01 1.00000E-01
 -1       112 6.00000E-01 5.00000E-01 1.00000E-01
 -1       113 0.00000E+00 5.00000E-01 0.00000E+00
 -1       114 6.00000E-01 5.00000E-01 0.00000E+00
 -1       115 1.20000E+00 5.00000E-01 1.00000E-01
 -1       116 1.20000E+00 5.00000E-01 0.00000E+00
 -1       117 1.80000E+00 5.00000E-01 1.00000E-01
 -1       118 1.80000E+00 5.00000E-01 0.00000E+00
 -1       119 2.40000E+00 5.00000E-01 1.00000E-01
 -1       120 2.40000E+00 5.00000E-01 0.00000E+00
 -1       121 3.00000E+00 5.00000E-01 1.00000E-01
 -1       122 3.00000E+00 5.00000E-01 0.00000E+00
 -1       123 3.60000E+00 5.00000E-01 1.00000E-01
 -1       124 3.60000E+00 5.00000E-01 0.00000E+00
 -1       125 4.20000E+00 5.00000E-01 1.00000E-01
 -1       126 4.20000E+00 5.00000E-01 0.00000E+00
 -1       127 4.80000E+00 5.00000E-01 1.00000E-01
 -1       128 4.80000E+00 5.00000E-01 0.00000E+00
 -1       129 5.40000E+00 5.00000E-01 1.00000E-01
 -1       130 5.40000E+00 5.00000E-01 0.00000E+00
 -1       131 6.00000E+00 5.00000E-01 1.00000E-01
 -1       132 6.00000E+00 5.00000E-01 0.00000E+00
 -1       133 0.00000E+00 6.00000E-01 1.00000E-01
 -1       134 6.00000E-01 6.00000E-01 1.00000E-01
 -1       135 0.00000E+00 6.00000E-01 0.00000E+00
 -1       136 6.00000E-01 6.00000E-01 0.00000E+00
 -1       137 1.20000E+00 6.00000E-01 1.00000E-01
 -1       138 1.20000E+00 6.00000E-01 0.00000E+00
 -1       139 1.80000E+00 6.00000E-01 1.00000E-01
 -1       140 1.80000E+00 6.00000E-01 0.00000E+00
 -1       141 2.40000E+00 6.00000E-01 1.00000E-01
 -1       142 2.40000E+00 6.00000E-01 0.00000E+00
 -1       143 3.00000E+00 6.00000E-01 1.00000E-01
 -1       144 3.00000E+00 6.00000E-01 0.00000E+00
 -1       145 3.60000E+00 6.00000E-01 1.00000E-01
 -1       146 3.60000E+00 6.00000E-01 0.00000E+00
 -1       147 4.20000E+00 6.00000E-01 1.00000E-01
 -1       148 4.20000E+00 6.00000E-01 0.00000E+00
 -1       149 4.80000E+00 6.00000E-01 1.00000E-01
 -1       150 4.80000E+00 6.00000E-01 0.00000E+00
 -1       151 5.40000E+00 6.00000E-01 1.00000E-01
 -1       152 5.40000E+00 6.00000E-01 0.00000E+00
 -1       153 6.00000E+00 6.00000E-01 1.00000E-01
 -1       154 6.00000E+00 6.00000E-01 0.00000E+00
 -1       155 0.00000E+00 7.00000E-01 1.00000E-01
 -1       156 6.00000E-01 7.00000E-01 1.00000E-01
 -1       157 0.00000E+00 7.00000E-01 0.00000E+00
 -1       158 6.00000E-01 7.00000E-01 0.00000E+00
 -1       159 1.20000E+00 7.00000E-01 1.00000E-01
 -1       160 1.20000E+00 7.00000E-01 0.00000E+00
 -1       161 1.80000E+00 7.00000E-01 1.00000E-01
 -1       162 1.80000E+00 7.00000E-01 0.00000E+00
 -1       163 2.40000E+00 7.00000E-01 1.00000E-01
 -1       164 2.40000E+00 7.00000E-01 0.00000E+00
 -1       165 3.00000E+00 7.00000E-01 1.00000E-01
 -1       166 3.00000E+00 7.00000E-01 0.00000E+00
 -1       167 3.60000E+00 7.00000E-01 1.00000E-01
 -1       168 3.60000E+00 7.00000E-01 0.00000E+00
 -1       169 4.20000E+00 7.00000E-01 1.00000E-01
 -1       170 4.20000E+00 7.00000E-01 0.00000E+00
 -1       171 4.80000E+00 7.00000E-01 1.00000E-01
 -1       172 4.80000E+00 7.00000E-01 0.00000E+00
 -1       173 5.40000E+00 7.00000E-01 1.00000E-01
 -1       174 5.40000E+00 7.00000E-01 0.00000E+00
 -1       175 6.00000E+00 7.00000E-01 1.00000E-01
 -1       176 6.00000E+00 7.00000E-01 0.00000E+00
 -1       177 0.00000E+00 8.00000E-01 1.00000E-01
 -1       178 6.00000E-01 8.00000E-01 1.00000E-01
 -1       179 0.00000E+00 8.00000E-01 0.00000E+00
 -1       180 6.00000E-01 8.00000E-01 0.00000E+00
 -1       181 1.20000E+00 8.00000E-01 1.00000E-01
 -1       182 1.20000E+00 8.00000E-01 0.00000E+00
 -1       183 1.80000E+00 8.00000E-01 1.00000E-01
 -1       184 1.80000E+00 8.00000E-01 0.00000E+00
 -1       185 2.40000E+00 8.00000E-01 1.00000E-01
 -1       186 2.40000E+00 8.00000E-01 0.00000E+00
 -1       187 3.00000E+00 8.00000E-01 1.00000E-01
 -1       188 3.00000E+00 8.00000E-01 0.00000E+00
 -1       189 3.60000E+00 8.00000E-01 1.00000E-01
 -1       190 3.60000E+00 8.00000E-01 0.00000E+00
 -1       191 4.20000E+00 8.00000E-01 1.00000E-01
 -1       192 4.20000E+00 8.00000E-01 0.00000E+00
 -1       193 4.80000E+00 8.00000E-01 1.00000E-01
 -1       194 4.80000E+00 8.00000E-01 0.00000E+00
 -1       195 5.40000E+00 8.00000E-01 1.00000E-01
 -1       196 5.40000E+00 8.00000E-01 0.00000E+00
 -1       197 6.00000E+00 8.00000E-01 1.00000E-01
 -1       198 6.00000E+00 8.00000E-01 0.00000E+00
 -1       199 0.00000E+00 9.00000E-01 1.00000E-01
 -1       200 6.00000E-01 9.00000E-01 1.00000E-01
 -1       201 0.00000E+00 9.00000E-01 0.00000E+00
 -1       202 6.00000E-01 9.00000E-01 0.00000E+00
 -1       203 1.20000E+00 9.00000E-01 1.00000E-01
 -1       204 1.20000E+00 9.00000E-01 0.00000E+00
 -1       205 1.80000E+00 9.00000E-01 1.00000E-01
 -1       206 1.80000E+00 9.00000E-01 0.00000E+00
 -1       207 2.40000E+00 9.00000E-01 1.00000E-01
 -1       208 2.40000E+00 9.00000E-01 0.00000E+00
 -1       209 3.00000E+00 9.00000E-01 1.00000E-01
 -1       210 3.00000E+00 9.00000E-01 0.00000E+00
 -1       211 3.60000E+00 9.00000E-01 1.00000E-01
 -1       212 3.60000E+00 9.00000E-01 0.00000E+00
 -1       213 4.20000E+00 9.00000E-01 1.00000E-01
 -1       214 4.20000E+00 9.00000E-01 0.00000E+00
 -1       215 4.80000E+00 9.00000E-01 1.00000E-01
 -1       216 4.80000E+00 9.00000E-01 0.00000E+00
 -1       217 5.40000E+00 9.00000E-01 1.00000E-01
 -1       218 5.40000E+00 9.00000E-01 0.00000E+00
 -1       219 6.00000E+00 9.00000E-01 1.00000E-01
 -1       220 6.00000E+00 9.00000E-01 0.00000E+00
 -1       221 0.00000E+00 1.00000E+00 1.00000E-01
 -1       222 6.00000E-01 1.00000E+00 1.00000E-01
 -1       223 0.00000E+00 1.00000E+00 0.00000E+00
 -1       224 6.00000E-01 1.00000E+00 0.00000E+00
 -1       225 1.20000E+00 1.00000E+00 1.00000E-01
 -1       226 1.20000E+00 1.00000E+00 0.00000E+00
 -1       227 1.80000E+00 1.00000E+00 1.00000E-01
 -1       228 1.80000E+00 1.00000E+00 0.00000E+00
 -1       229 2.40000E+00 1.00000E+00 1.00000E-01
 -1       230 2.40000E+00 1.00000E+00 0.00000E+00
 -1       231 3.00000E+00 1.00000E+00 1.00000E-01
 -1       232 3.00000E+00 1.00000E+00 0.00000E+00
 -1       233 3.60000E+00 1.00000E+00 1.00000E-01
 -1       234 3.60000E+00 1.00000E+00 0.00000E+00
 -1       235 4.20000E+00 1.00000E+00 1.00000E-01
 -1       236 4.20000E+00 1.00000E+00 0.00000E+00
 -1       237 4.80000E+00 1.00000E+00 1.00000E-01
 -1       238 4.80000E+00 1.00000E+00 0.00000E+00
 -1       239 5.40000E+00 1.00000E+00 1.00000E-01
 -1       240 5.40000E+00 1.00000E+00 0.00000E+00
 -1       241 6.00000E+00 1.00000E+00 1.00000E-01
 -1       242 6.00000E+00 1.00000E+00 0.00000E+00
 -3
    3C                                                                   1
 -1         1    1    0WATER
 -2         1         2         3         4         5         6         7         8
 -1         2    1    0WATER
 -2         4         3         9        10         8         7        11        12
 -1         3    1    0WATER
 -2        10         9        13        14        12        11        15        16
 -1         4    1    0WATER
 -2        14        13        17        18        16        15        19        20
 -1         5    1    0WATER
 -2        18        17        21        22        20        19        23        24
 -1         6    1    0WATER
 -2        22        21        25        26        24        23        27        28
 -1         7    1    0WATER
 -2        26        25        29        30        28        27        31        32
 -1         8    1    0WATER
 -2        30        29        33        34        32        31        35        36
 -1         9    1    0WATER
 -2        34        33        37        38        36        35        39        40
 -1        10    1    0WATER
 -2        38        37        41        42        40        39        43        44
 -1        11    1    0WATER
 -2         2        45        46         3         6        47        48         7
 -1        12    1    0WATER
 -2         3        46        49         9         7        48        50        11
 -1        13    1    0WATER
 -2         9        49        51        13        11        50        52        15
 -1        14    1    0WATER
 -2        13        51        53        17        15        52        54        19
 -1        15    1    0WATER
 -2        17        53        55        21        19        54        56        23
 -1        16    1    0WATER
 -2        21        55        57        25        23        56        58        27
 -1        17    1    0WATER
 -2        25        57        59        29        27        58        60        31
 -1        18    1    0WATER
 -2        29        59        61        33        31        60        62        35
 -1        19    1    0WATER
 -2        33        61        63        37        35        62        64        39
 -1        20    1    0WATER
 -2        37        63        65        41        39        64        66        43
 -1        21    1    0WATER
 -2        45        67        68        46        47        69        70        48
 -1        22    1    0WATER
 -2        46        68        71        49        48        70        72        50
 -1        23    1    0WATER
 -2        49        71        73        51        50        72        74        52
 -1        24    1    0WATER
 -2        51        73        75        53        52        74        76        54
 -1        25    1    0WATER
 -2        53        75        77        55        54        76        78        56
 -1        26    1    0WATER
 -2        55        77        79        57        56        78        80        58
 -1        27    1    0WATER
 -2        57        79        81        59        58        80        82        60
 -1        28    1    0WATER
 -2        59        81        83        61        60        82        84        62
 -1        29    1    0WATER
 -2        61        83        85        63        62        84        86        64
 -1        30    1    0WATER
 -2        63        85        87        65        64        86        88        66
 -1        31    1    0WATER
 -2        67        89        90        68        69        91        92        70
 -1        32    1    0WATER
 -2        68        90        93        71        70        92        94        72
 -1        33    1    0WATER
 -2        71        93        95        73        72        94        96        74
 -1        34    1    0WATER
 -2        73        95        97        75        74        96        98        76
 -1        35    1    0WATER
 -2        75        97        99        77        76        98       100        78
 -1        36    1    0WATER
 -2        77        99       101        79        78       100       102        80
 -1        37    1    0WATER
 -2        79       101       103        81        80       102       104        82
 -1        38    1    0WATER
 -2        81       103       105        83        82       104       106        84
 -1        39    1    0WATER
 -2        83       105       107        85        84       106       108        86
 -1        40    1    0WATER
 -2        85       107       109        87        86       108       110        88
 -1        41    1    0WATER
 -2        89       111       112        90        91       113       114        92
 -1        42    1    0WATER
 -2        90       112       115        93        92       114       116        94
 -1        43    1    0WATER
 -2        93       115       117        95        94       116       118        96
 -1        44    1    0WATER
 -2        95       117       119        97        96       118       120        98
 -1        45    1    0WATER
 -2        97       119       121        99        98       120       122       100
 -1        46    1    0WATER
 -2        99       121       123       101       100       122       124       102
 -1        47    1    0WATER
 -2       101       123       125       103       102       124       126       104
 -1        48    1    0WATER
 -2       103       125       127       105       104       126       128       106
 -1        49    1    0WATER
 -2       105       127       129       107       106       128       130       108
 -1        50    1    0WATER
 -2       107       129       131       109       108       130       132       110
 -1        51    1    0WATER
 -2       111       133       134       112       113       135       136       114
 -1        52    1    0WATER
 -2       112       134       137       115       114       136       138       116
 -1        53    1    0WATER
 -2       115       137       139       117       116       138       140       118
 -1        54    1    0WATER
 -2       117       139       141       119       118       140       142       120
 -1        55    1    0WATER
 -2       119       141       143       121       120       142       144       122
 -1        56    1    0WATER
 -2       121       143       145       123       122       144       146       124
 -1        57    1    0WATER
 -2       123       145       147       125       124       146       148       126
 -1        58    1    0WATER
 -2       125       147       149       127       126       148       150       128
 -1        59    1    0WATER
 -2       127       149       151       129       128       150       152       130
 -1        60    1    0WATER
 -2       129       151       153       131       130       152       154       132
 -1        61    1    0WATER
 -2       133       155       156       134       135       157       158       136
 -1        62    1    0WATER
 -2       134       156       159       137       136       158       160       138
 -1        63    1    0WATER
 -2       137       159       161       139       138       160       162       140
 -1        64    1    0WATER
 -2       139       161       163       141       140       162       164       142
 -1        65    1    0WATER
 -2       141       163       165       143       142       164       166       144
 -1        66    1    0WATER
 -2       143       165       167       145       144       166       168       146
 -1        67    1    0WATER
 -2       145       167       169       147       146       168       170       148
 -1        68    1    0WATER
 -2       147       169       171       149       148       170       172       150
 -1        69    1    0WATER
 -2       149       171       173       151       150       172       174       152
 -1        70    1    0WATER
 -2       151       173       175       153       152       174       176       154
 -1        71    1    0WATER
 -2       155       177       178       156       157       179       180       158
 -1        72    1    0WATER
 -2       156       178       181       159       158       180       182       160
 -1        73    1    0WATER
 -2       159       181       183       161       160       182       184       162
 -1        74    1    0WATER
 -2       161       183       185       163       162       184       186       164
 -1        75    1    0WATER
 -2       163       185       187       165       164       186       188       166
 -1        76    1    0WATER
 -2       165       187       189       167       166       188       190       168
 -1        77    1    0WATER
 -2       167       189       191       169       168       190       192       170
 -1        78    1    0WATER
 -2       169       191       193       171       170       192       194       172
 -1        79    1    0WATER
 -2       171       193       195       173       172       194       196       174
 -1        80    1    0WATER
 -2       173       195       197       175       174       196       198       176
 -1        81    1    0WATER
 -2       177       199       200       178       179       201       202       180
 -1        82    1    0WATER
 -2       178       200       203       181       180       202       204       182
 -1        83    1    0WATER
 -2       181       203       205       183       182       204       206       184
 -1        84    1    0WATER
 -2       183       205       207       185       184       206       208       186
 -1        85    1    0WATER
 -2       185       207       209       187       186       208       210       188
 -1        86    1    0WATER
 -2       187       209       211       189       188       210       212       190
 -1        87    1    0WATER
 -2       189       211       213       191       190       212       214       192
 -1        88    1    0WATER
 -2       191       213       215       193       192       214       216       194
 -1        89    1    0WATER
 -2       193       215       217       195       194       216       218       196
 -1        90    1    0WATER
 -2       195       217       219       197       196       218       220       198
 -1        91    1    0WATER
 -2       199       221       222       200       201       223       224       202
 -1        92    1    0WATER
 -2       200       222       225       203       202       224       226       204
 -1        93    1    0WATER
 -2       203       225       227       205       204       226       228       206
 -1        94    1    0WATER
 -2       205       227       229       207       206       228       230       208
 -1        95    1    0WATER
 -2       207       229       231       209       208       230       232       210
 -1        96    1    0WATER
 -2       209       231       233       211       210       232       234       212
 -1        97    1    0WATER
 -2       211       233       235       213       212       234       236       214
 -1        98    1    0WATER
 -2       213       235       237       215       214       236       238       216
 -1        99    1    0WATER
 -2       215       237       239       217       216       238       240       218
 -1       100    1    0WATER
 -2       217       239       241       219       218       240       242       220
 -3
    1PSTEP                         1                                                                                                
  100CL  1011.0000000000         242                     3    1           1                                                         
 -4  V3DF        4    1                                                                                                             
 -5  V1          1    2    1    0                                                                                                   
 -5  V2          1    2    2    0                                                                                                   
 -5  V3          1    2    3    0                                                                                                   
 -5  ALL         1    2    0    0    1ALL                                                                                           
 -1         1 1.00000E+00 0.00000E+00 0.00000E+00
 -1         2 1.00000E+00 0.00000E+00 0.00000E+00
 -1         3 6.43960E-01 9.68988E-02 0.00000E+00
 -1         4 0.00000E+00 0.00000E+00 0.00000E+00
 -1         5 1.00000E+00 0.00000E+00 0.00000E+00
 -1         6 1.00000E+00 0.00000E+00 0.00000E+00
 -1         7 6.43960E-01 9.68988E-02 0.00000E+00
 -1         8 0.00000E+00 0.00000E+00 0.00000E+00
 -1         9 5.20606E-01-1.60577E-02 0.00000E+00
 -1        10 0.00000E+00 0.00000E+00 0.00000E+00
 -1        11 5.20606E-01-1.60577E-02 0.00000E+00
 -1        12 0.00000E+00 0.00000E+00 0.00000E+00
 -1        13 5.46552E-01 1.58563E-03 0.00000E+00
 -1        14 0.00000E+00 0.00000E+00 0.00000E+00
 -1        15 5.46552E-01 1.58563E-03 0.00000E+00
 -1        16 0.00000E+00 0.00000E+00 0.00000E+00
 -1        17 5.44890E-01 2.70817E-04 0.00000E+00
 -1        18 0.00000E+00 0.00000E+00 0.00000E+00
 -1        19 5.44890E-01 2.70817E-04 0.00000E+00
 -1        20 0.00000E+00 0.00000E+00 0.00000E+00
 -1        21 5.42884E-01-2.95607E-04 0.00000E+00
 -1        22 0.00000E+00 0.00000E+00 0.00000E+00
 -1        23 5.42884E-01-2.95607E-04 0.00000E+00
 -1        24 0.00000E+00 0.00000E+00 0.00000E+00
 -1        25 5.44673E-01 1.85718E-04 0.00000E+00
 -1        26 0.00000E+00 0.00000E+00 0.00000E+00
 -1        27 5.44673E-01 1.85718E-04 0.00000E+00
 -1        28 0.00000E+00 0.00000E+00 0.00000E+00
 -1        29 5.43473E-01-1.29249E-04 0.00000E+00
 -1        30 0.00000E+00 0.00000E+00 0.00000E+00
 -1        31 5.43473E-01-1.29249E-04 0.00000E+00
 -1        32 0.00000E+00 0.00000E+00 0.00000E+00
 -1        33 5.44263E-01 1.99795E-04 0.00000E+00
 -1        34 0.00000E+00 0.00000E+00 0.00000E+00
 -1        35 5.44263E-01 1.99795E-04 0.00000E+00
 -1        36 0.00000E+00 0.00000E+00 0.00000E+00
 -1        37 5.43714E-01-6.73602E-04 0.00000E+00
 -1        38 0.00000E+00 0.00000E+00 0.00000E+00
 -1        39 5.43714E-01-6.73602E-04 0.00000E+00
 -1        40 0.00000E+00 0.00000E+00 0.00000E+00
 -1        41 5.43938E-01 3.49575E-03 0.00000E+00
 -1        42 0.00000E+00 0.00000E+00 0.00000E+00
 -1        43 5.43938E-01 3.49575E-03 0.00000E+00
 -1        44 0.00000E+00 0.00000E+00 0.00000E+00
 -1        45 1.00000E+00 0.00000E+00 0.00000E+00
 -1        46 1.02313E+00 1.39560E-01 0.00000E+00
 -1        47 1.00000E+00 0.00000E+00 0.00000E+00
 -1        48 1.02313E+00 1.39560E-01 0.00000E+00
 -1        49 9.60520E-01-1.56668E-02 0.00000E+00
 -1        50 9.60520E-01-1.56668E-02 0.00000E+00
 -1        51 9.63624E-01-1.29603E-03 0.00000E+00
 -1        52 9.63624E-01-1.29603E-03 0.00000E+00
 -1        53 9.70011E-01 1.57421E-03 0.00000E+00
 -1        54 9.70011E-01 1.57421E-03 0.00000E+00
 -1        55 9.64963E-01-7.35013E-04 0.00000E+00
 -1        56 9.64963E-01-7.35013E-04 0.00000E+00
 -1        57 9.68054E-01 3.30460E-04 0.00000E+00
 -1        58 9.68054E-01 3.30460E-04 0.00000E+00
 -1        59 9.66232E-01-1.56542E-04 0.00000E+00
 -1        60 9.66232E-01-1.56542E-04 0.00000E+00
 -1        61 9.67343E-01 1.53784E-04 0.00000E+00
 -1        62 9.67343E-01 1.53784E-04 0.00000E+00
 -1        63 9.66604E-01-4.59172E-04 0.00000E+00
 -1        64 9.66604E-01-4.59172E-04 0.00000E+00
 -1        65 9.67123E-01 2.56480E-03 0.00000E+00
 -1        66 9.67123E-01 2.56480E-03 0.00000E+00
 -1        67 1.00000E+00 0.00000E+00 0.00000E+00
 -1        68 1.22768E+00 1.25379E-01 0.00000E+00
 -1        69 1.00000E+00 0.00000E+00 0.00000E+00
 -1        70 1.22768E+00 1.25379E-01 0.00000E+00
 -1        71 1.28890E+00-9.13191E-03 0.00000E+00
 -1        72 1.28890E+00-9.13191E-03 0.00000E+00
 -1        73 1.25971E+00-3.42955E-03 0.00000E+00
 -1        74 1.25971E+00-3.42955E-03 0.00000E+00
 -1        75 1.27360E+00 2.07875E-03 0.00000E+00
 -1        76 1.27360E+00 2.07875E-03 0.00000E+00
 -1        77 1.26657E+00-8.17371E-04 0.00000E+00
 -1        78 1.26657E+00-8.17371E-04 0.00000E+00
 -1        79 1.27035E+00 3.16725E-04 0.00000E+00
 -1        80 1.27035E+00 3.16725E-04 0.00000E+00
 -1        81 1.26824E+00-1.39931E-04 0.00000E+00
 -1        82 1.26824E+00-1.39931E-04 0.00000E+00
 -1        83 1.26947E+00 1.08495E-04 0.00000E+00
 -1        84 1.26947E+00 1.08495E-04 0.00000E+00
 -1        85 1.26866E+00-3.38954E-04 0.00000E+00
 -1        86 1.26866E+00-3.38954E-04 0.00000E+00
 -1        87 1.26946E+00 1.68011E-03 0.00000E+00
 -1        88 1.26946E+00 1.68011E-03 0.00000E+00
 -1        89 1.00000E+00 0.00000E+00 0.00000E+00
 -1        90 1.32442E+00 7.22182E-02 0.00000E+00
 -1        91 1.00000E+00 0.00000E+00 0.00000E+00
 -1        92 1.32442E+00 7.22182E-02 0.00000E+00
 -1        93 1.48998E+00-3.52705E-03 0.00000E+00
 -1        94 1.48998E+00-3.52705E-03 0.00000E+00
 -1        95 1.43736E+00-2.74648E-03 0.00000E+00
 -1        96 1.43736E+00-2.74648E-03 0.00000E+00
 -1        97 1.45556E+00 1.40631E-03 0.00000E+00
 -1        98 1.45556E+00 1.40631E-03 0.00000E+00
 -1        99 1.44762E+00-5.13835E-04 0.00000E+00
 -1       100 1.44762E+00-5.13835E-04 0.00000E+00
 -1       101 1.45169E+00 1.86054E-04 0.00000E+00
 -1       102 1.45169E+00 1.86054E-04 0.00000E+00
 -1       103 1.44946E+00-7.90192E-05 0.00000E+00
 -1       104 1.44946E+00-7.90192E-05 0.00000E+00
 -1       105 1.45073E+00 5.32946E-05 0.00000E+00
 -1       106 1.45073E+00 5.32946E-05 0.00000E+00