    1C
    1UModel: segment                                                    
    1UUSER                                                              
    1UDATE              27.september.2024                               
    1UTIME              18:31:20                                        
    1UHOST                                                              
    1UPGM               CalculiX                                        
    1UVERSION           Version DEVELOPMENT                             
    1UCOMPILETIME       Fri Sep 27 17:57:10 CEST 2024                    
    1UDIR                                                               
    1UDBN                                                               
    1UMAT    1EL                                                        
    2C                           661                                     1
 -1         1 1.00000E-01 1.00000E+00-3.72529E-09
 -1         2 1.00000E-01 9.25000E-01-3.72529E-09
 -1         3 1.00000E-01 9.17088E-01 1.20737E-01
 -1         4 1.00000E-01 9.91447E-01 1.30526E-01
 -1         5 5.00000E-02 1.00000E+00-3.72529E-09
 -1         6 5.00000E-02 9.25000E-01-3.72529E-09
 -1         7 5.00000E-02 9.17088E-01 1.20737E-01
 -1         8 5.00000E-02 9.91447E-01 1.30526E-01
 -1         9 1.00000E-01 9.62500E-01-3.72529E-09
 -1        10 1.00000E-01 9.23021E-01 6.04979E-02
 -1        11 1.00000E-01 9.54268E-01 1.25631E-01
 -1        12 1.00000E-01 9.97861E-01 6.54032E-02
 -1        13 7.50000E-02 1.00000E+00-3.72529E-09
 -1        14 7.50000E-02 9.25000E-01-3.72529E-09
 -1        15 7.50000E-02 9.17088E-01 1.20737E-01
 -1        16 7.50000E-02 9.91447E-01 1.30526E-01
 -1        17 5.00000E-02 9.62500E-01-3.72529E-09
 -1        18 5.00000E-02 9.23021E-01 6.04979E-02
 -1        19 5.00000E-02 9.54268E-01 1.25631E-01
 -1        20 5.00000E-02 9.97861E-01 6.54032E-02
 -1        21 1.00000E-01 8.50000E-01-3.72529E-09
 -1        22 1.00000E-01 8.42730E-01 1.10947E-01
 -1        23 5.00000E-02 8.50000E-01-3.72529E-09
 -1        24 5.00000E-02 8.42730E-01 1.10947E-01
 -1        25 1.00000E-01 8.87500E-01-3.72529E-09
 -1        26 1.00000E-01 8.48182E-01 5.55926E-02
 -1        27 1.00000E-01 8.79909E-01 1.15842E-01
 -1        28 7.50000E-02 8.50000E-01-3.72529E-09
 -1        29 7.50000E-02 8.42730E-01 1.10947E-01
 -1        30 5.00000E-02 8.87500E-01-3.72529E-09
 -1        31 5.00000E-02 8.48182E-01 5.55926E-02
 -1        32 5.00000E-02 8.79909E-01 1.15842E-01
 -1        33 1.00000E-01 7.75000E-01-3.72529E-09
 -1        34 1.00000E-01 7.68371E-01 1.01158E-01
 -1        35 5.00000E-02 7.75000E-01-3.72529E-09
 -1        36 5.00000E-02 7.68371E-01 1.01158E-01
 -1        37 1.00000E-01 8.12500E-01-3.72529E-09
 -1        38 1.00000E-01 7.73342E-01 5.06873E-02
 -1        39 1.00000E-01 8.05550E-01 1.06052E-01
 -1        40 7.50000E-02 7.75000E-01-3.72529E-09
 -1        41 7.50000E-02 7.68371E-01 1.01158E-01
 -1        42 5.00000E-02 8.12500E-01-3.72529E-09
 -1        43 5.00000E-02 7.73342E-01 5.06873E-02
 -1        44 5.00000E-02 8.05550E-01 1.06052E-01
 -1        45 1.00000E-01 7.00000E-01-3.72529E-09
 -1        46 1.00000E-01 6.94013E-01 9.13680E-02
 -1        47 5.00000E-02 7.00000E-01-3.72529E-09
 -1        48 5.00000E-02 6.94012E-01 9.13680E-02
 -1        49 1.00000E-01 7.37500E-01-3.72529E-09
 -1        50 1.00000E-01 6.98502E-01 4.57820E-02
 -1        51 1.00000E-01 7.31192E-01 9.62627E-02
 -1        52 7.50000E-02 7.00000E-01-3.72529E-09
 -1        53 7.50000E-02 6.94012E-01 9.13680E-02
 -1        54 5.00000E-02 7.37500E-01-3.72529E-09
 -1        55 5.00000E-02 6.98502E-01 4.57820E-02
 -1        56 5.00000E-02 7.31192E-01 9.62627E-02
 -1        57 1.00000E-01 6.25000E-01-3.72529E-09
 -1        58 1.00000E-01 6.19654E-01 8.15784E-02
 -1        59 5.00000E-02 6.25000E-01-3.72529E-09
 -1        60 5.00000E-02 6.19654E-01 8.15784E-02
 -1        61 1.00000E-01 6.62500E-01-3.72529E-09
 -1        62 1.00000E-01 6.23663E-01 4.08767E-02
 -1        63 1.00000E-01 6.56833E-01 8.64732E-02
 -1        64 7.50000E-02 6.25000E-01-3.72529E-09
 -1        65 7.50000E-02 6.19654E-01 8.15784E-02
 -1        66 5.00000E-02 6.62500E-01-3.72529E-09
 -1        67 5.00000E-02 6.23663E-01 4.08767E-02
 -1        68 5.00000E-02 6.56833E-01 8.64732E-02
 -1        69 1.00000E-01 5.50000E-01-3.72529E-09
 -1        70 1.00000E-01 5.45295E-01 7.17890E-02
 -1        71 5.00000E-02 5.50000E-01-3.72529E-09
 -1        72 5.00000E-02 5.45295E-01 7.17890E-02
 -1        73 1.00000E-01 5.87500E-01-3.72529E-09
 -1        74 1.00000E-01 5.48823E-01 3.59715E-02
 -1        75 1.00000E-01 5.82475E-01 7.66837E-02
 -1        76 7.50000E-02 5.50000E-01-3.72529E-09
 -1        77 7.50000E-02 5.45295E-01 7.17890E-02
 -1        78 5.00000E-02 5.87500E-01-3.72529E-09
 -1        79 5.00000E-02 5.48823E-01 3.59715E-02
 -1        80 5.00000E-02 5.82475E-01 7.66837E-02
 -1        81 1.00000E-01 4.75000E-01-3.72529E-09
 -1        82 1.00000E-01 4.70937E-01 6.19995E-02
 -1        83 5.00000E-02 4.75000E-01-3.72529E-09
 -1        84 5.00000E-02 4.70937E-01 6.19995E-02
 -1        85 1.00000E-01 5.12500E-01-3.72529E-09
 -1        86 1.00000E-01 4.73983E-01 3.10662E-02
 -1        87 1.00000E-01 5.08116E-01 6.68942E-02
 -1        88 7.50000E-02 4.75000E-01-3.72529E-09
 -1        89 7.50000E-02 4.70937E-01 6.19995E-02
 -1        90 5.00000E-02 5.12500E-01-3.72529E-09
 -1        91 5.00000E-02 4.73983E-01 3.10662E-02
 -1        92 5.00000E-02 5.08116E-01 6.68942E-02
 -1        93 1.00000E-01 4.00000E-01-3.72529E-09
 -1        94 1.00000E-01 3.96578E-01 5.22101E-02
 -1        95 5.00000E-02 4.00000E-01-3.72529E-09
 -1        96 5.00000E-02 3.96578E-01 5.22101E-02
 -1        97 1.00000E-01 4.37500E-01-3.72529E-09
 -1        98 1.00000E-01 3.99144E-01 2.61610E-02
 -1        99 1.00000E-01 4.33757E-01 5.71048E-02
 -1       100 7.50000E-02 4.00000E-01-3.72529E-09
 -1       101 7.50000E-02 3.96578E-01 5.22101E-02
 -1       102 5.00000E-02 4.37500E-01-3.72529E-09
 -1       103 5.00000E-02 3.99143E-01 2.61610E-02
 -1       104 5.00000E-02 4.33757E-01 5.71048E-02
 -1       105 1.00000E-01 3.25000E-01-3.72529E-09
 -1       106 1.00000E-01 3.22219E-01 4.24206E-02
 -1       107 5.00000E-02 3.25000E-01-3.72529E-09
 -1       108 5.00000E-02 3.22219E-01 4.24206E-02
 -1       109 1.00000E-01 3.62500E-01-3.72529E-09
 -1       110 1.00000E-01 3.24304E-01 2.12558E-02
 -1       111 1.00000E-01 3.59399E-01 4.73154E-02
 -1       112 7.50000E-02 3.25000E-01-3.72529E-09
 -1       113 7.50000E-02 3.22219E-01 4.24206E-02
 -1       114 5.00000E-02 3.62500E-01-3.72529E-09
 -1       115 5.00000E-02 3.24304E-01 2.12558E-02
 -1       116 5.00000E-02 3.59399E-01 4.73153E-02
 -1       117 1.00000E-01 2.50000E-01-3.72529E-09
 -1       118 1.00000E-01 2.47861E-01 3.26313E-02
 -1       119 5.00000E-02 2.50000E-01-3.72529E-09
 -1       120 5.00000E-02 2.47861E-01 3.26313E-02
 -1       121 1.00000E-01 2.87500E-01-3.72529E-09
 -1       122 1.00000E-01 2.49464E-01 1.63506E-02
 -1       123 1.00000E-01 2.85040E-01 3.75259E-02
 -1       124 7.50000E-02 2.50000E-01-3.72529E-09
 -1       125 7.50000E-02 2.47861E-01 3.26313E-02
 -1       126 5.00000E-02 2.87500E-01-3.72529E-09
 -1       127 5.00000E-02 2.49464E-01 1.63506E-02
 -1       128 5.00000E-02 2.85040E-01 3.75259E-02
 -1       129 1.00000E-01 1.75000E-01-3.72529E-09
 -1       130 1.00000E-01 1.73502E-01 2.28419E-02
 -1       131 5.00000E-02 1.75000E-01-3.72529E-09
 -1       132 5.00000E-02 1.73502E-01 2.28419E-02
 -1       133 1.00000E-01 2.12500E-01-3.72529E-09
 -1       134 1.00000E-01 1.74624E-01 1.14454E-02
 -1       135 1.00000E-01 2.10681E-01 2.77366E-02
 -1       136 7.50000E-02 1.75000E-01-3.72529E-09
 -1       137 7.50000E-02 1.73502E-01 2.28419E-02
 -1       138 5.00000E-02 2.12500E-01-3.72529E-09
 -1       139 5.00000E-02 1.74624E-01 1.14454E-02
 -1       140 5.00000E-02 2.10681E-01 2.77366E-02
 -1       141 1.00000E-01 1.00000E-01-3.72529E-09
 -1       142 1.00000E-01 9.91434E-02 1.30526E-02
 -1       143 5.00000E-02 1.00000E-01-3.72529E-09
 -1       144 5.00000E-02 9.91434E-02 1.30526E-02
 -1       145 1.00000E-01 1.37500E-01-3.72529E-09
 -1       146 1.00000E-01 9.97848E-02 6.54026E-03
 -1       147 1.00000E-01 1.36323E-01 1.79472E-02
 -1       148 7.50000E-02 1.00000E-01-3.72529E-09
 -1       149 7.50000E-02 9.91434E-02 1.30526E-02
 -1       150 5.00000E-02 1.37500E-01-3.72529E-09
 -1       151 5.00000E-02 9.97848E-02 6.54026E-03
 -1       152 5.00000E-02 1.36323E-01 1.79472E-02
 -1       153-7.45058E-09 1.00000E+00-3.72529E-09
 -1       154-7.45058E-09 9.25000E-01-3.72529E-09
 -1       155-7.45058E-09 9.17088E-01 1.20737E-01
 -1       156-7.45058E-09 9.91447E-01 1.30526E-01
 -1       157 2.50000E-02 1.00000E+00-3.72529E-09
 -1       158 2.50000E-02 9.25000E-01-3.72529E-09
 -1       159 2.50000E-02 9.17088E-01 1.20737E-01
 -1       160 2.50000E-02 9.91447E-01 1.30526E-01
 -1       161-7.45058E-09 9.62500E-01-3.72529E-09
 -1       162-7.45058E-09 9.23021E-01 6.04979E-02
 -1       163-7.45058E-09 9.54268E-01 1.25631E-01
 -1       164-7.45058E-09 9.97861E-01 6.54032E-02
 -1       165-7.45058E-09 8.50000E-01-3.72529E-09
 -1       166-7.45058E-09 8.42730E-01 1.10947E-01
 -1       167 2.50000E-02 8.50000E-01-3.72529E-09
 -1       168 2.50000E-02 8.42730E-01 1.10947E-01
 -1       169-7.45058E-09 8.87500E-01-3.72529E-09
 -1       170-7.45058E-09 8.48182E-01 5.55926E-02
 -1       171-7.45058E-09 8.79909E-01 1.15842E-01
 -1       172-7.45058E-09 7.75000E-01-3.72529E-09
 -1       173-7.45058E-09 7.68371E-01 1.01158E-01
 -1       174 2.50000E-02 7.75000E-01-3.72529E-09
 -1       175 2.50000E-02 7.68371E-01 1.01158E-01
 -1       176-7.45058E-09 8.12500E-01-3.72529E-09
 -1       177-7.45058E-09 7.73342E-01 5.06873E-02
 -1       178-7.45058E-09 8.05550E-01 1.06052E-01
 -1       179-7.45058E-09 7.00000E-01-3.72529E-09
 -1       180-7.45058E-09 6.94012E-01 9.13680E-02
 -1       181 2.50000E-02 7.00000E-01-3.72529E-09
 -1       182 2.50000E-02 6.94012E-01 9.13680E-02
 -1       183-7.45058E-09 7.37500E-01-3.72529E-09
 -1       184-7.45058E-09 6.98502E-01 4.57820E-02
 -1       185-7.45058E-09 7.31192E-01 9.62627E-02
 -1       186-7.45058E-09 6.25000E-01-3.72529E-09
 -1       187-7.45058E-09 6.19654E-01 8.15784E-02
 -1       188 2.50000E-02 6.25000E-01-3.72529E-09
 -1       189 2.50000E-02 6.19654E-01 8.15784E-02
 -1       190-7.45058E-09 6.62500E-01-3.72529E-09
 -1       191-7.45058E-09 6.23662E-01 4.08767E-02
 -1       192-7.45058E-09 6.56833E-01 8.64732E-02
 -1       193-7.45058E-09 5.50000E-01-3.72529E-09
 -1       194-7.45058E-09 5.45295E-01 7.17890E-02
 -1       195 2.50000E-02 5.50000E-01-3.72529E-09
 -1       196 2.50000E-02 5.45295E-01 7.17890E-02
 -1       197-7.45058E-09 5.87500E-01-3.72529E-09
 -1       198-7.45058E-09 5.48823E-01 3.59715E-02
 -1       199-7.45058E-09 5.82475E-01 7.66837E-02
 -1       200-7.45058E-09 4.75000E-01-3.72529E-09
 -1       201-7.45058E-09 4.70937E-01 6.19995E-02
 -1       202 2.50000E-02 4.75000E-01-3.72529E-09
 -1       203 2.50000E-02 4.70937E-01 6.19995E-02
 -1       204-7.45058E-09 5.12500E-01-3.72529E-09
 -1       205-7.45058E-09 4.73983E-01 3.10662E-02
 -1       206-7.45058E-09 5.08116E-01 6.68942E-02
 -1       207-7.45058E-09 4.00000E-01-3.72529E-09
 -1       208-7.45058E-09 3.96578E-01 5.22101E-02
 -1       209 2.50000E-02 4.00000E-01-3.72529E-09
 -1       210 2.50000E-02 3.96578E-01 5.22101E-02
 -1       211-7.45058E-09 4.37500E-01-3.72529E-09
 -1       212-7.45058E-09 3.99143E-01 2.61610E-02
 -1       213-7.45058E-09 4.33757E-01 5.71048E-02
 -1       214-7.45058E-09 3.25000E-01-3.72529E-09
 -1       215-7.45058E-09 3.22219E-01 4.24206E-02
 -1       216 2.50000E-02 3.25000E-01-3.72529E-09
 -1       217 2.50000E-02 3.22219E-01 4.24206E-02
 -1       218-7.45058E-09 3.62500E-01-3.72529E-09
 -1       219-7.45058E-09 3.24304E-01 2.12558E-02
 -1       220-7.45058E-09 3.59399E-01 4.73153E-02
 -1       221-7.45058E-09 2.50000E-01-3.72529E-09
 -1       222-7.45058E-09 2.47861E-01 3.26313E-02
 -1       223 2.50000E-02 2.50000E-01-3.72529E-09
 -1       224 2.50000E-02 2.47861E-01 3.26313E-02
 -1       225-7.45058E-09 2.87500E-01-3.72529E-09
 -1       226-7.45058E-09 2.49464E-01 1.63506E-02
 -1       227-7.45058E-09 2.85040E-01 3.75259E-02
 -1       228-7.45058E-09 1.75000E-01-3.72529E-09
 -1       229-7.45058E-09 1.73502E-01 2.28419E-02
 -1       230 2.50000E-02 1.75000E-01-3.72529E-09
 -1       231 2.50000E-02 1.73502E-01 2.28419E-02
 -1       232-7.45058E-09 2.12500E-01-3.72529E-09
 -1       233-7.45058E-09 1.74624E-01 1.14454E-02
 -1       234-7.45058E-09 2.10681E-01 2.77366E-02
 -1       235-7.45058E-09 1.00000E-01-3.72529E-09
 -1       236-7.45058E-09 9.91434E-02 1.30526E-02
 -1       237 2.50000E-02 1.00000E-01-3.72529E-09
 -1       238 2.50000E-02 9.91434E-02 1.30526E-02
 -1       239-7.45058E-09 1.37500E-01-3.72529E-09
 -1       240-7.45058E-09 9.97848E-02 6.54026E-03
 -1       241-7.45058E-09 1.36323E-01 1.79472E-02
 -1       242 1.00000E-01 8.93483E-01 2.39407E-01
 -1       243 1.00000E-01 9.65928E-01 2.58819E-01
 -1       244 5.00000E-02 8.93483E-01 2.39407E-01
 -1       245 5.00000E-02 9.65928E-01 2.58819E-01
 -1       246 1.00000E-01 9.07228E-01 1.80458E-01
 -1       247 1.00000E-01 9.29706E-01 2.49113E-01
 -1       248 1.00000E-01 9.80787E-01 1.95090E-01
 -1       249 7.50000E-02 8.93483E-01 2.39407E-01
 -1       250 7.50000E-02 9.65928E-01 2.58819E-01
 -1       251 5.00000E-02 9.07228E-01 1.80458E-01
 -1       252 5.00000E-02 9.29706E-01 2.49113E-01
 -1       253 5.00000E-02 9.80787E-01 1.95090E-01
 -1       254 1.00000E-01 8.21039E-01 2.19996E-01
 -1       255 5.00000E-02 8.21039E-01 2.19996E-01
 -1       256 1.00000E-01 8.33669E-01 1.65826E-01
 -1       257 1.00000E-01 8.57261E-01 2.29702E-01
 -1       258 7.50000E-02 8.21039E-01 2.19996E-01
 -1       259 5.00000E-02 8.33669E-01 1.65826E-01
 -1       260 5.00000E-02 8.57261E-01 2.29702E-01
 -1       261 1.00000E-01 7.48594E-01 2.00584E-01
 -1       262 5.00000E-02 7.48594E-01 2.00584E-01
 -1       263 1.00000E-01 7.60110E-01 1.51195E-01
 -1       264 1.00000E-01 7.84816E-01 2.10290E-01
 -1       265 7.50000E-02 7.48594E-01 2.00584E-01
 -1       266 5.00000E-02 7.60110E-01 1.51195E-01
 -1       267 5.00000E-02 7.84816E-01 2.10290E-01
 -1       268 1.00000E-01 6.76149E-01 1.81173E-01
 -1       269 5.00000E-02 6.76149E-01 1.81173E-01
 -1       270 1.00000E-01 6.86551E-01 1.36563E-01
 -1       271 1.00000E-01 7.12372E-01 1.90878E-01
 -1       272 7.50000E-02 6.76149E-01 1.81173E-01
 -1       273 5.00000E-02 6.86551E-01 1.36563E-01
 -1       274 5.00000E-02 7.12372E-01 1.90878E-01
 -1       275 1.00000E-01 6.03705E-01 1.61761E-01
 -1       276 5.00000E-02 6.03705E-01 1.61761E-01
 -1       277 1.00000E-01 6.12992E-01 1.21931E-01
 -1       278 1.00000E-01 6.39927E-01 1.71467E-01
 -1       279 7.50000E-02 6.03705E-01 1.61761E-01
 -1       280 5.00000E-02 6.12992E-01 1.21931E-01
 -1       281 5.00000E-02 6.39927E-01 1.71467E-01
 -1       282 1.00000E-01 5.31260E-01 1.42350E-01
 -1       283 5.00000E-02 5.31260E-01 1.42350E-01
 -1       284 1.00000E-01 5.39433E-01 1.07299E-01
 -1       285 1.00000E-01 5.67482E-01 1.52056E-01
 -1       286 7.50000E-02 5.31260E-01 1.42350E-01
 -1       287 5.00000E-02 5.39432E-01 1.07299E-01
 -1       288 5.00000E-02 5.67482E-01 1.52056E-01
 -1       289 1.00000E-01 4.58815E-01 1.22938E-01
 -1       290 5.00000E-02 4.58815E-01 1.22938E-01
 -1       291 1.00000E-01 4.65873E-01 9.26673E-02
 -1       292 1.00000E-01 4.95037E-01 1.32644E-01
 -1       293 7.50000E-02 4.58815E-01 1.22938E-01
 -1       294 5.00000E-02 4.65873E-01 9.26673E-02
 -1       295 5.00000E-02 4.95037E-01 1.32644E-01
 -1       296 1.00000E-01 3.86370E-01 1.03527E-01
 -1       297 5.00000E-02 3.86370E-01 1.03527E-01
 -1       298 1.00000E-01 3.92314E-01 7.80355E-02
 -1       299 1.00000E-01 4.22593E-01 1.13233E-01
 -1       300 7.50000E-02 3.86370E-01 1.03527E-01
 -1       301 5.00000E-02 3.92314E-01 7.80355E-02
 -1       302 5.00000E-02 4.22593E-01 1.13233E-01
 -1       303 1.00000E-01 3.13926E-01 8.41157E-02
 -1       304 5.00000E-02 3.13926E-01 8.41157E-02
 -1       305 1.00000E-01 3.18755E-01 6.34039E-02
 -1       306 1.00000E-01 3.50148E-01 9.38214E-02
 -1       307 7.50000E-02 3.13926E-01 8.41157E-02
 -1       308 5.00000E-02 3.18755E-01 6.34039E-02
 -1       309 5.00000E-02 3.50148E-01 9.38214E-02
 -1       310 1.00000E-01 2.41481E-01 6.47044E-02
 -1       311 5.00000E-02 2.41481E-01 6.47044E-02
 -1       312 1.00000E-01 2.45196E-01 4.87722E-02
 -1       313 1.00000E-01 2.77703E-01 7.44101E-02
 -1       314 7.50000E-02 2.41481E-01 6.47044E-02
 -1       315 5.00000E-02 2.45196E-01 4.87722E-02
 -1       316 5.00000E-02 2.77703E-01 7.44100E-02
 -1       317 1.00000E-01 1.69036E-01 4.52932E-02
 -1       318 5.00000E-02 1.69036E-01 4.52932E-02
 -1       319 1.00000E-01 1.71637E-01 3.41406E-02
 -1       320 1.00000E-01 2.05259E-01 5.49988E-02
 -1       321 7.50000E-02 1.69036E-01 4.52932E-02
 -1       322 5.00000E-02 1.71637E-01 3.41406E-02
 -1       323 5.00000E-02 2.05259E-01 5.49988E-02
 -1       324 1.00000E-01 9.65914E-02 2.58820E-02
 -1       325 5.00000E-02 9.65914E-02 2.58820E-02
 -1       326 1.00000E-01 9.80774E-02 1.95090E-02
 -1       327 1.00000E-01 1.32814E-01 3.55876E-02
 -1       328 7.50000E-02 9.65914E-02 2.58820E-02
 -1       329 5.00000E-02 9.80774E-02 1.95090E-02
 -1       330 5.00000E-02 1.32814E-01 3.55875E-02
 -1       331-7.45058E-09 8.93483E-01 2.39407E-01
 -1       332-7.45058E-09 9.65928E-01 2.58819E-01
 -1       333 2.50000E-02 8.93483E-01 2.39407E-01
 -1       334 2.50000E-02 9.65928E-01 2.58819E-01
 -1       335-7.45058E-09 9.07228E-01 1.80458E-01
 -1       336-7.45058E-09 9.29706E-01 2.49113E-01
 -1       337-7.45058E-09 9.80787E-01 1.95090E-01
 -1       338-7.45058E-09 8.21039E-01 2.19996E-01
 -1       339 2.50000E-02 8.21039E-01 2.19996E-01
 -1       340-7.45058E-09 8.33669E-01 1.65826E-01
 -1       341-7.45058E-09 8.57261E-01 2.29702E-01
 -1       342-7.45058E-09 7.48594E-01 2.00584E-01
 -1       343 2.50000E-02 7.48594E-01 2.00584E-01
 -1       344-7.45058E-09 7.60110E-01 1.51195E-01
 -1       345-7.45058E-09 7.84816E-01 2.10290E-01
 -1       346-7.45058E-09 6.76149E-01 1.81173E-01
 -1       347 2.50000E-02 6.76149E-01 1.81173E-01
 -1       348-7.45058E-09 6.86551E-01 1.36563E-01
 -1       349-7.45058E-09 7.12372E-01 1.90878E-01
 -1       350-7.45058E-09 6.03705E-01 1.61761E-01
 -1       351 2.50000E-02 6.03705E-01 1.61761E-01
 -1       352-7.45058E-09 6.12992E-01 1.21931E-01
 -1       353-7.45058E-09 6.39927E-01 1.71467E-01
 -1       354-7.45058E-09 5.31260E-01 1.42350E-01
 -1       355 2.50000E-02 5.31260E-01 1.42350E-01
 -1       356-7.45058E-09 5.39432E-01 1.07299E-01
 -1       357-7.45058E-09 5.67482E-01 1.52056E-01
 -1       358-7.45058E-09 4.58815E-01 1.22938E-01
 -1       359 2.50000E-02 4.58815E-01 1.22938E-01
 -1       360-7.45058E-09 4.65873E-01 9.26673E-02
 -1       361-7.45058E-09 4.95037E-01 1.32644E-01
 -1       362-7.45058E-09 3.86370E-01 1.03527E-01
 -1       363 2.50000E-02 3.86370E-01 1.03527E-01
 -1       364-7.45058E-09 3.92314E-01 7.80355E-02
 -1       365-7.45058E-09 4.22593E-01 1.13233E-01
 -1       366-7.45058E-09 3.13926E-01 8.41157E-02
 -1       367 2.50000E-02 3.13926E-01 8.41157E-02
 -1       368-7.45058E-09 3.18755E-01 6.34039E-02
 -1       369-7.45058E-09 3.50148E-01 9.38214E-02
 -1       370-7.45058E-09 2.41481E-01 6.47044E-02
 -1       371 2.50000E-02 2.41481E-01 6.47044E-02
 -1       372-7.45058E-09 2.45196E-01 4.87722E-02
 -1       373-7.45058E-09 2.77703E-01 7.44100E-02
 -1       374-7.45058E-09 1.69036E-01 4.52932E-02
 -1       375 2.50000E-02 1.69036E-01 4.52932E-02
 -1       376-7.45058E-09 1.71637E-01 3.41406E-02
 -1       377-7.45058E-09 2.05259E-01 5.49988E-02
 -1       378-7.45058E-09 9.65914E-02 2.58820E-02
 -1       379 2.50000E-02 9.65914E-02 2.58820E-02
 -1       380-7.45058E-09 9.80774E-02 1.95090E-02
 -1       381-7.45058E-09 1.32814E-01 3.55875E-02
 -1       382 1.00000E-01 8.54591E-01 3.53982E-01
 -1       383 1.00000E-01 9.23882E-01 3.82683E-01
 -1       384 5.00000E-02 8.54591E-01 3.53982E-01
 -1       385 5.00000E-02 9.23882E-01 3.82683E-01
 -1       386 1.00000E-01 8.75912E-01 2.97331E-01
 -1       387 1.00000E-01 8.89236E-01 3.68332E-01
 -1       388 1.00000E-01 9.46932E-01 3.21439E-01
 -1       389 7.50000E-02 8.54591E-01 3.53982E-01
 -1       390 7.50000E-02 9.23882E-01 3.82683E-01
 -1       391 5.00000E-02 8.75912E-01 2.97331E-01
 -1       392 5.00000E-02 8.89236E-01 3.68332E-01
 -1       393 5.00000E-02 9.46932E-01 3.21439E-01
 -1       394 1.00000E-01 7.85299E-01 3.25280E-01
 -1       395 5.00000E-02 7.85299E-01 3.25280E-01
 -1       396 1.00000E-01 8.04892E-01 2.73223E-01
 -1       397 1.00000E-01 8.19945E-01 3.39631E-01
 -1       398 7.50000E-02 7.85299E-01 3.25280E-01
 -1       399 5.00000E-02 8.04892E-01 2.73223E-01
 -1       400 5.00000E-02 8.19945E-01 3.39631E-01
 -1       401 1.00000E-01 7.16008E-01 2.96579E-01
 -1       402 5.00000E-02 7.16008E-01 2.96579E-01
 -1       403 1.00000E-01 7.33872E-01 2.49115E-01
 -1       404 1.00000E-01 7.50654E-01 3.10930E-01
 -1       405 7.50000E-02 7.16008E-01 2.96579E-01
 -1       406 5.00000E-02 7.33872E-01 2.49115E-01
 -1       407 5.00000E-02 7.50654E-01 3.10930E-01
 -1       408 1.00000E-01 6.46717E-01 2.67878E-01
 -1       409 5.00000E-02 6.46717E-01 2.67878E-01
 -1       410 1.00000E-01 6.62852E-01 2.25007E-01
 -1       411 1.00000E-01 6.81363E-01 2.82228E-01
 -1       412 7.50000E-02 6.46717E-01 2.67878E-01
 -1       413 5.00000E-02 6.62852E-01 2.25007E-01
 -1       414 5.00000E-02 6.81363E-01 2.82228E-01
 -1       415 1.00000E-01 5.77426E-01 2.39177E-01
 -1       416 5.00000E-02 5.77426E-01 2.39177E-01
 -1       417 1.00000E-01 5.91832E-01 2.00899E-01
 -1       418 1.00000E-01 6.12071E-01 2.53527E-01
 -1       419 7.50000E-02 5.77426E-01 2.39177E-01
 -1       420 5.00000E-02 5.91832E-01 2.00899E-01
 -1       421 5.00000E-02 6.12071E-01 2.53527E-01
 -1       422 1.00000E-01 5.08134E-01 2.10475E-01
 -1       423 5.00000E-02 5.08134E-01 2.10475E-01
 -1       424 1.00000E-01 5.20812E-01 1.76791E-01
 -1       425 1.00000E-01 5.42780E-01 2.24826E-01
 -1       426 7.50000E-02 5.08134E-01 2.10475E-01
 -1       427 5.00000E-02 5.20812E-01 1.76791E-01
 -1       428 5.00000E-02 5.42780E-01 2.24826E-01
 -1       429 1.00000E-01 4.38843E-01 1.81774E-01
 -1       430 5.00000E-02 4.38843E-01 1.81774E-01
 -1       431 1.00000E-01 4.49792E-01 1.52683E-01
 -1       432 1.00000E-01 4.73489E-01 1.96125E-01
 -1       433 7.50000E-02 4.38843E-01 1.81774E-01
 -1       434 5.00000E-02 4.49792E-01 1.52683E-01
 -1       435 5.00000E-02 4.73489E-01 1.96125E-01
 -1       436 1.00000E-01 3.69552E-01 1.53073E-01
 -1       437 5.00000E-02 3.69552E-01 1.53073E-01
 -1       438 1.00000E-01 3.78772E-01 1.28575E-01
 -1       439 1.00000E-01 4.04198E-01 1.67424E-01
 -1       440 7.50000E-02 3.69552E-01 1.53073E-01
 -1       441 5.00000E-02 3.78772E-01 1.28575E-01
 -1       442 5.00000E-02 4.04197E-01 1.67424E-01
 -1       443 1.00000E-01 3.00261E-01 1.24372E-01
 -1       444 5.00000E-02 3.00261E-01 1.24372E-01
 -1       445 1.00000E-01 3.07752E-01 1.04467E-01
 -1       446 1.00000E-01 3.34906E-01 1.38722E-01
 -1       447 7.50000E-02 3.00261E-01 1.24372E-01
 -1       448 5.00000E-02 3.07752E-01 1.04467E-01
 -1       449 5.00000E-02 3.34906E-01 1.38722E-01
 -1       450 1.00000E-01 2.30969E-01 9.56708E-02
 -1       451 5.00000E-02 2.30969E-01 9.56707E-02
 -1       452 1.00000E-01 2.36732E-01 8.03596E-02
 -1       453 1.00000E-01 2.65615E-01 1.10021E-01
 -1       454 7.50000E-02 2.30969E-01 9.56707E-02
 -1       455 5.00000E-02 2.36732E-01 8.03596E-02
 -1       456 5.00000E-02 2.65615E-01 1.10021E-01
 -1       457 1.00000E-01 1.61678E-01 6.69697E-02
 -1       458 5.00000E-02 1.61678E-01 6.69696E-02
 -1       459 1.00000E-01 1.65712E-01 5.62518E-02
 -1       460 1.00000E-01 1.96324E-01 8.13202E-02
 -1       461 7.50000E-02 1.61678E-01 6.69697E-02
 -1       462 5.00000E-02 1.65712E-01 5.62518E-02
 -1       463 5.00000E-02 1.96324E-01 8.13202E-02
 -1       464 1.00000E-01 9.23866E-02 3.82686E-02
 -1       465 5.00000E-02 9.23866E-02 3.82686E-02
 -1       466 1.00000E-01 9.46918E-02 3.21441E-02
 -1       467 1.00000E-01 1.27032E-01 5.26191E-02
 -1       468 7.50000E-02 9.23866E-02 3.82686E-02
 -1       469 5.00000E-02 9.46918E-02 3.21441E-02
 -1       470 5.00000E-02 1.27032E-01 5.26191E-02
 -1       471-7.45058E-09 8.54591E-01 3.53982E-01
 -1       472-7.45058E-09 9.23882E-01 3.82683E-01
 -1       473 2.50000E-02 8.54591E-01 3.53982E-01
 -1       474 2.50000E-02 9.23882E-01 3.82683E-01
 -1       475-7.45058E-09 8.75912E-01 2.97331E-01
 -1       476-7.45058E-09 8.89236E-01 3.68332E-01
 -1       477-7.45058E-09 9.46932E-01 3.21439E-01
 -1       478-7.45058E-09 7.85299E-01 3.25280E-01
 -1       479 2.50000E-02 7.85299E-01 3.25280E-01
 -1       480-7.45058E-09 8.04892E-01 2.73223E-01
 -1       481-7.45058E-09 8.19945E-01 3.39631E-01
 -1       482-7.45058E-09 7.16008E-01 2.96579E-01
 -1       483 2.50000E-02 7.16008E-01 2.96579E-01
 -1       484-7.45058E-09 7.33872E-01 2.49115E-01
 -1       485-7.45058E-09 7.50654E-01 3.10930E-01
 -1       486-7.45058E-09 6.46717E-01 2.67878E-01
 -1       487 2.50000E-02 6.46717E-01 2.67878E-01
 -1       488-7.45058E-09 6.62852E-01 2.25007E-01
 -1       489-7.45058E-09 6.81363E-01 2.82228E-01
 -1       490-7.45058E-09 5.77426E-01 2.39177E-01
 -1       491 2.50000E-02 5.77426E-01 2.39177E-01
 -1       492-7.45058E-09 5.91832E-01 2.00899E-01
 -1       493-7.45058E-09 6.12071E-01 2.53527E-01
 -1       494-7.45058E-09 5.08134E-01 2.10475E-01
 -1       495 2.50000E-02 5.08134E-01 2.10475E-01
 -1       496-7.45058E-09 5.20812E-01 1.76791E-01
 -1       497-7.45058E-09 5.42780E-01 2.24826E-01
 -1       498-7.45058E-09 4.38843E-01 1.81774E-01
 -1       499 2.50000E-02 4.38843E-01 1.81774E-01
 -1       500-7.45058E-09 4.49792E-01 1.52683E-01
 -1       501-7.45058E-09 4.73489E-01 1.96125E-01
 -1       502-7.45058E-09 3.69552E-01 1.53073E-01
 -1       503 2.50000E-02 3.69552E-01 1.53073E-01
 -1       504-7.45058E-09 3.78772E-01 1.28575E-01
 -1       505-7.45058E-09 4.04197E-01 1.67424E-01
 -1       506-7.45058E-09 3.00261E-01 1.24372E-01
 -1       507 2.50000E-02 3.00261E-01 1.24372E-01
 -1       508-7.45058E-09 3.07752E-01 1.04467E-01
 -1       509-7.45058E-09 3.34906E-01 1.38722E-01
 -1       510-7.45058E-09 2.30969E-01 9.56707E-02
 -1       511 2.50000E-02 2.30969E-01 9.56707E-02
 -1       512-7.45058E-09 2.36732E-01 8.03596E-02
 -1       513-7.45058E-09 2.65615E-01 1.10021E-01
 -1       514-7.45058E-09 1.61678E-01 6.69696E-02
 -1       515 2.50000E-02 1.61678E-01 6.69696E-02
 -1       516-7.45058E-09 1.65712E-01 5.62518E-02
 -1       517-7.45058E-09 1.96324E-01 8.13202E-02
 -1       518-7.45058E-09 9.23866E-02 3.82686E-02
 -1       519 2.50000E-02 9.23866E-02 3.82686E-02
 -1       520-7.45058E-09 9.46918E-02 3.21441E-02
 -1       521-7.45058E-09 1.27032E-01 5.26191E-02
 -1       522 1.00000E-01 8.01077E-01 4.62500E-01
 -1       523 1.00000E-01 8.66030E-01 5.00000E-01
 -1       524 5.00000E-02 8.01077E-01 4.62500E-01
 -1       525 5.00000E-02 8.66030E-01 5.00000E-01
 -1       526 1.00000E-01 8.29610E-01 4.09116E-01
 -1       527 1.00000E-01 8.33554E-01 4.81250E-01
 -1       528 1.00000E-01 8.96875E-01 4.42288E-01
 -1       529 7.50000E-02 8.01077E-01 4.62500E-01
 -1       530 7.50000E-02 8.66030E-01 5.00000E-01
 -1       531 5.00000E-02 8.29610E-01 4.09116E-01
 -1       532 5.00000E-02 8.33554E-01 4.81250E-01
 -1       533 5.00000E-02 8.96875E-01 4.42288E-01
 -1       534 1.00000E-01 7.36125E-01 4.25000E-01
 -1       535 5.00000E-02 7.36125E-01 4.25000E-01
 -1       536 1.00000E-01 7.62344E-01 3.75945E-01
 -1       537 1.00000E-01 7.68601E-01 4.43750E-01
 -1       538 7.50000E-02 7.36125E-01 4.25000E-01
 -1       539 5.00000E-02 7.62344E-01 3.75945E-01
 -1       540 5.00000E-02 7.68601E-01 4.43750E-01
 -1       541 1.00000E-01 6.71172E-01 3.87500E-01
 -1       542 5.00000E-02 6.71172E-01 3.87500E-01
 -1       543 1.00000E-01 6.95078E-01 3.42773E-01
 -1       544 1.00000E-01 7.03649E-01 4.06250E-01
 -1       545 7.50000E-02 6.71172E-01 3.87500E-01
 -1       546 5.00000E-02 6.95078E-01 3.42773E-01
 -1       547 5.00000E-02 7.03649E-01 4.06250E-01
 -1       548 1.00000E-01 6.06220E-01 3.50000E-01
 -1       549 5.00000E-02 6.06220E-01 3.50000E-01
 -1       550 1.00000E-01 6.27812E-01 3.09602E-01
 -1       551 1.00000E-01 6.38696E-01 3.68750E-01
 -1       552 7.50000E-02 6.06220E-01 3.50000E-01
 -1       553 5.00000E-02 6.27812E-01 3.09602E-01
 -1       554 5.00000E-02 6.38696E-01 3.68750E-01
 -1       555 1.00000E-01 5.41268E-01 3.12500E-01
 -1       556 5.00000E-02 5.41267E-01 3.12500E-01
 -1       557 1.00000E-01 5.60547E-01 2.76430E-01
 -1       558 1.00000E-01 5.73744E-01 3.31250E-01
 -1       559 7.50000E-02 5.41268E-01 3.12500E-01
 -1       560 5.00000E-02 5.60547E-01 2.76430E-01
 -1       561 5.00000E-02 5.73744E-01 3.31250E-01
 -1       562 1.00000E-01 4.76315E-01 2.75000E-01
 -1       563 5.00000E-02 4.76315E-01 2.75000E-01
 -1       564 1.00000E-01 4.93281E-01 2.43258E-01
 -1       565 1.00000E-01 5.08791E-01 2.93750E-01
 -1       566 7.50000E-02 4.76315E-01 2.75000E-01
 -1       567 5.00000E-02 4.93281E-01 2.43258E-01
 -1       568 5.00000E-02 5.08791E-01 2.93750E-01
 -1       569 1.00000E-01 4.11362E-01 2.37500E-01
 -1       570 5.00000E-02 4.11362E-01 2.37500E-01
 -1       571 1.00000E-01 4.26015E-01 2.10087E-01
 -1       572 1.00000E-01 4.43839E-01 2.56250E-01
 -1       573 7.50000E-02 4.11362E-01 2.37500E-01
 -1       574 5.00000E-02 4.26015E-01 2.10087E-01
 -1       575 5.00000E-02 4.43839E-01 2.56250E-01
 -1       576 1.00000E-01 3.46410E-01 2.00000E-01
 -1       577 5.00000E-02 3.46410E-01 2.00000E-01
 -1       578 1.00000E-01 3.58749E-01 1.76915E-01
 -1       579 1.00000E-01 3.78886E-01 2.18750E-01
 -1       580 7.50000E-02 3.46410E-01 2.00000E-01
 -1       581 5.00000E-02 3.58749E-01 1.76915E-01
 -1       582 5.00000E-02 3.78886E-01 2.18750E-01