    1C
    1UModel: segment                                                    
    1UUSER                                                              
    1UDATE              01.october.2021                                 
    1UTIME              10:05:56                                        
    1UHOST                                                              
    1UPGM               CalculiX                                        
    1UVERSION           Version DEVELOPMENT                             
    1UCOMPILETIME       Fri Oct  1 09:39:21 CEST 2021                    
    1UDIR                                                               
    1UDBN                                                               
    1UMAT    1EL                                                        
    2C                          2756                                     1
 -1      3371 1.54874E-02 1.00000E+00 0.00000E+00
 -1      3372 0.00000E+00 9.99719E-01 1.71847E-02
 -1      3373 0.00000E+00 9.84623E-01 0.00000E+00
 -1      3374 1.54878E-02 9.99719E-01 1.71850E-02
 -1      3375 1.54874E-02 9.84623E-01 0.00000E+00
 -1      3376 4.78549E-02 1.00000E+00 0.00000E+00
 -1      3377 3.05862E-02 9.99637E-01 2.22246E-02
 -1      3378 4.72433E-02 9.99693E-01 1.87628E-02
 -1      3379 4.02748E-02 9.85147E-01 1.21292E-02
 -1      3380 3.24320E-02 9.79987E-01 0.00000E+00
 -1      3381 2.78700E-02 9.85763E-01 1.81922E-02
 -1      3382 8.23675E-02 1.00000E+00 0.00000E+00
 -1      3383 6.41245E-02 9.99693E-01 1.87618E-02
 -1      3384 8.23675E-02 9.99731E-01 1.64303E-02
 -1      3385 4.93121E-02 9.79987E-01 0.00000E+00
 -1      3386 8.23675E-02 9.83130E-01 0.00000E+00
 -1      3387 5.71549E-02 9.85147E-01 1.21292E-02
 -1      3388 6.55914E-02 9.73919E-01 0.00000E+00
 -1      3389 7.10322E-02 9.84910E-01 1.32449E-02
 -1      3390 1.00000E-01 9.83130E-01 0.00000E+00
 -1      3391 1.00000E-01 9.99731E-01 1.64303E-02
 -1      3392 1.50987E-02 9.99137E-01 3.94040E-02
 -1      3393 0.00000E+00 9.98399E-01 5.44170E-02
 -1      3394 0.00000E+00 9.79223E-01 3.73473E-02
 -1      3395 0.00000E+00 9.84315E-01 1.71842E-02
 -1      3396 1.23825E-02 9.85455E-01 3.53764E-02
 -1      3397 2.87665E-02 9.97051E-01 7.52643E-02
 -1      3398 0.00000E+00 9.74527E-01 7.73127E-02
 -1      3399 0.00000E+00 9.78090E-01 5.73876E-02
 -1      3400 2.59011E-02 9.95362E-01 9.58650E-02
 -1      3401 0.00000E+00 9.95306E-01 9.65474E-02
 -1      3402 1.51004E-02 9.98152E-01 5.94547E-02
 -1      3403 1.32348E-02 9.82059E-01 7.66713E-02
 -1      3404 1.23825E-02 9.84322E-01 5.54166E-02
 -1      3405 2.34100E-02 9.89557E-01 1.43258E-01
 -1      3406 0.00000E+00 9.89658E-01 1.42577E-01
 -1      3407 1.73057E-02 9.69704E-01 1.29843E-01
 -1      3408 1.75713E-02 9.68483E-01 1.11820E-01
 -1      3409 0.00000E+00 9.72378E-01 9.93784E-02
 -1      3410 0.00000E+00 9.68324E-01 1.23207E-01
 -1      3411 1.32348E-02 9.79911E-01 9.87371E-02
 -1      3412 2.59039E-02 9.92899E-01 1.17897E-01
 -1      3413 0.00000E+00 9.64908E-01 1.47167E-01
 -1      3414 1.73057E-02 9.66288E-01 1.53803E-01
 -1      3415 0.00000E+00 9.80536E-01 1.96250E-01
 -1      3416 0.00000E+00 9.57796E-01 1.76715E-01
 -1      3417 2.34061E-02 9.85865E-01 1.67182E-01
 -1      3418 0.00000E+00 9.65843E-01 2.59116E-01
 -1      3419 0.00000E+00 9.44751E-01 2.36887E-01
 -1      3420 5.00000E-02 9.76036E-01 2.17088E-01
 -1      3421 5.00022E-02 9.69039E-01 2.46397E-01
 -1      3422 2.42995E-02 9.49446E-01 2.07525E-01
 -1      3423 0.00000E+00 9.51877E-01 2.06371E-01
 -1      3424 2.34094E-02 9.80389E-01 1.96930E-01
 -1      3425 4.99988E-02 9.50405E-01 3.10633E-01
 -1      3426 5.00000E-02 9.28394E-01 2.90689E-01
 -1      3427 5.00002E-02 9.60017E-01 2.79517E-01
 -1      3428 0.00000E+00 9.35855E-01 2.70032E-01
 -1      3429 2.37072E-02 9.45240E-01 3.26171E-01
 -1      3430 0.00000E+00 9.47174E-01 3.20688E-01
 -1      3431 0.00000E+00 9.26463E-01 3.01453E-01
 -1      3432 0.00000E+00 9.27783E-01 3.72813E-01
 -1      3433 0.00000E+00 9.11161E-01 3.57504E-01
 -1      3434 2.37009E-02 9.35053E-01 3.54416E-01
 -1      3435 0.00000E+00 9.16826E-01 3.29883E-01
 -1      3436 2.46273E-02 9.14228E-01 4.04954E-01
 -1      3437 2.37031E-02 9.25643E-01 3.78228E-01
 -1      3438 0.00000E+00 9.01579E-01 3.81240E-01
 -1      3439 0.00000E+00 8.94306E-01 4.04385E-01
 -1      3440 1.29205E-02 9.02156E-01 3.93689E-01
 -1      3441 0.00000E+00 9.09649E-01 4.15284E-01
 -1      3442 0.00000E+00 8.92070E-01 4.51646E-01
 -1      3443 2.46273E-02 9.05680E-01 4.23676E-01
 -1      3444 2.48002E-02 8.94086E-01 4.47722E-01
 -1      3445 2.16544E-02 8.78065E-01 4.23222E-01
 -1      3446 0.00000E+00 8.85770E-01 4.23112E-01
 -1      3447 1.29205E-02 8.93620E-01 4.12416E-01
 -1      3448 0.00000E+00 8.74560E-01 4.84651E-01
 -1      3449 1.54880E-02 8.74560E-01 4.84651E-01
 -1      3450 0.00000E+00 8.55770E-01 4.73804E-01
 -1      3451 0.00000E+00 8.57018E-01 4.50874E-01
 -1      3452 0.00000E+00 8.76856E-01 4.40799E-01
 -1      3453 2.47987E-02 8.85035E-01 4.65343E-01
 -1      3454 2.16544E-02 8.69151E-01 4.40909E-01
 -1      3455 1.54874E-02 8.66030E-01 5.00000E-01
 -1      3456 0.00000E+00 8.47275E-01 4.89172E-01
 -1      3457 4.78549E-02 8.66030E-01 5.00000E-01
 -1      3458 4.06468E-02 8.44630E-01 4.87645E-01
 -1      3459 4.02867E-02 8.76700E-01 4.80799E-01
 -1      3460 1.54874E-02 8.47275E-01 4.89172E-01
 -1      3461 5.75269E-02 8.44630E-01 4.87645E-01
 -1      3462 5.71657E-02 8.76700E-01 4.80799E-01
 -1      3463 8.23675E-02 8.74072E-01 4.85528E-01
 -1      3464 8.23675E-02 8.66030E-01 5.00000E-01
 -1      3465 8.23675E-02 8.49567E-01 4.90495E-01
 -1      3466 1.00000E-01 8.74072E-01 4.85528E-01
 -1      3467 1.00000E-01 8.49567E-01 4.90495E-01
 -1      3468 8.17570E-02 9.99344E-01 3.51905E-02
 -1      3469 1.00000E-01 9.82859E-01 1.64303E-02
 -1      3470 8.86647E-02 9.84639E-01 2.96752E-02
 -1      3471 1.00000E-01 9.98579E-01 5.07539E-02
 -1      3472 1.00000E-01 9.83937E-01 3.92266E-02
 -1      3473 8.96057E-02 9.84247E-01 4.41023E-02
 -1      3474 1.00000E-01 9.95967E-01 8.84853E-02
 -1      3475 8.17562E-02 9.98465E-01 5.30848E-02
 -1      3476 7.87665E-02 9.97289E-01 7.23607E-02
 -1      3477 8.85086E-02 9.80332E-01 7.55993E-02
 -1      3478 1.00000E-01 9.80417E-01 7.44329E-02
 -1      3479 1.00000E-01 9.83005E-01 5.71172E-02
 -1      3480 8.96057E-02 9.83315E-01 6.19929E-02
 -1      3481 7.87647E-02 9.95662E-01 9.22069E-02
 -1      3482 1.00000E-01 9.78622E-01 9.42611E-02
 -1      3483 7.59039E-02 9.93490E-01 1.12756E-01
 -1      3484 1.00000E-01 9.91336E-01 1.31269E-01
 -1      3485 8.85086E-02 9.78536E-01 9.54275E-02
 -1      3486 1.00000E-01 9.72948E-01 1.17122E-01
 -1      3487 8.33079E-02 9.74747E-01 1.15821E-01
 -1      3488 7.59026E-02 9.90677E-01 1.35710E-01
 -1      3489 1.00000E-01 9.69918E-01 1.40045E-01
 -1      3490 8.33079E-02 9.71717E-01 1.38744E-01
 -1      3491 1.00000E-01 9.61725E-01 1.58309E-01
 -1      3492 1.00000E-01 9.83292E-01 1.81320E-01
 -1      3493 7.34058E-02 9.86923E-01 1.61017E-01
 -1      3494 1.00000E-01 9.71207E-01 2.37744E-01
 -1      3495 1.00000E-01 9.45924E-01 2.16892E-01
 -1      3496 1.00000E-01 9.56714E-01 1.85418E-01
 -1      3497 7.34037E-02 9.82048E-01 1.88159E-01
 -1      3498 7.42995E-02 9.51331E-01 1.98800E-01
 -1      3499 1.00000E-01 9.54415E-01 2.98152E-01
 -1      3500 1.00000E-01 9.32023E-01 2.78093E-01
 -1      3501 5.00000E-02 9.39484E-01 2.57437E-01
 -1      3502 1.00000E-01 9.38772E-01 2.46166E-01
 -1      3503 7.42995E-02 9.44179E-01 2.28075E-01
 -1      3504 1.00000E-01 9.22315E-01 3.09175E-01
 -1      3505 7.37001E-02 9.38683E-01 3.44497E-01
 -1      3506 1.00000E-01 9.19259E-01 3.36524E-01
 -1      3507 1.00000E-01 9.33998E-01 3.57084E-01
 -1      3508 7.72582E-02 8.95607E-01 3.73897E-01
 -1      3509 7.46273E-02 9.16755E-01 3.99126E-01
 -1      3510 1.00000E-01 9.12041E-01 4.09999E-01
 -1      3511 1.00000E-01 9.01301E-01 3.89957E-01
 -1      3512 7.37002E-02 9.27978E-01 3.72319E-01
 -1      3513 1.00000E-01 9.08645E-01 3.64377E-01
 -1      3514 7.47973E-02 8.93834E-01 4.48213E-01
 -1      3515 1.00000E-01 8.91360E-01 4.53029E-01
 -1      3516 1.00000E-01 8.80691E-01 4.36139E-01
 -1      3517 7.46273E-02 9.05444E-01 4.24174E-01
 -1      3518 1.00000E-01 8.90002E-01 4.15011E-01
 -1      3519 1.00000E-01 8.57604E-01 4.76020E-01
 -1      3520 7.47987E-02 8.84576E-01 4.66236E-01
 -1      3521 1.00000E-01 8.71554E-01 4.54220E-01
 -1      3522 0.00000E+00 1.06499E-01 0.00000E+00
 -1      3523 0.00000E+00 1.03869E-01 4.12804E-03
 -1      3524 6.04201E-03 1.00000E-01 0.00000E+00
 -1      3525 0.00000E+00 9.98179E-02 5.55756E-03
 -1      3526 6.04000E-03 9.98179E-02 5.55537E-03
 -1      3527 1.84764E-02 1.00000E-01 0.00000E+00
 -1      3528 1.40169E-02 9.96222E-02 8.20073E-03
 -1      3529 6.04201E-03 1.03869E-01 4.12804E-03
 -1      3530 1.47626E-02 1.06159E-01 0.00000E+00
 -1      3531 6.04201E-03 1.06499E-01 0.00000E+00
 -1      3532 3.18874E-02 1.00000E-01 0.00000E+00
 -1      3533 2.87012E-02 1.06498E-01 0.00000E+00
 -1      3534 2.81046E-02 9.97910E-02 6.37301E-03
 -1      3535 2.03983E-02 9.96225E-02 8.19772E-03
 -1      3536 2.11549E-02 1.06159E-01 0.00000E+00
 -1      3537 3.90978E-02 1.05647E-01 7.05787E-03
 -1      3538 3.51178E-02 9.97910E-02 6.37264E-03
 -1      3539 3.57199E-02 1.06498E-01 0.00000E+00
 -1      3540 4.66178E-02 1.00000E-01 0.00000E+00
 -1      3541 4.37730E-02 1.07115E-01 0.00000E+00
 -1      3542 4.27477E-02 9.95111E-02 9.32670E-03
 -1      3543 6.27682E-02 1.00000E-01 0.00000E+00
 -1      3544 6.01410E-02 9.95492E-02 8.94118E-03
 -1      3545 5.04418E-02 9.95111E-02 9.32663E-03
 -1      3546 5.14847E-02 1.07115E-01 0.00000E+00
 -1      3547 5.60404E-02 1.07083E-01 9.93306E-03
 -1      3548 5.99501E-02 1.06185E-01 0.00000E+00
 -1      3549 6.83888E-02 1.06185E-01 0.00000E+00
 -1      3550 7.60418E-02 1.05809E-01 0.00000E+00
 -1      3551 7.92103E-02 1.00000E-01 0.00000E+00
 -1      3552 7.76776E-02 9.95475E-02 8.95837E-03
 -1      3553 6.85636E-02 9.95487E-02 8.94595E-03
 -1      3554 7.28422E-02 1.07646E-01 6.74293E-03
 -1      3555 8.56666E-02 9.95468E-02 8.96533E-03
 -1      3556 9.36101E-02 9.97897E-02 6.41199E-03
 -1      3557 9.36068E-02 1.00000E-01 0.00000E+00
 -1      3558 9.36068E-02 1.05977E-01 7.57499E-03
 -1      3559 8.40450E-02 1.05809E-01 0.00000E+00
 -1      3560 9.36068E-02 1.06696E-01 0.00000E+00
 -1      3561 1.00000E-01 1.06696E-01 0.00000E+00
 -1      3562 1.00000E-01 9.97897E-02 6.41529E-03
 -1      3563 1.00000E-01 1.05977E-01 7.57499E-03
 -1      3564 6.12444E-03 1.18716E-01 0.00000E+00
 -1      3565 0.00000E+00 1.20596E-01 0.00000E+00
 -1      3566 0.00000E+00 1.17231E-01 6.45297E-03
 -1      3567 0.00000E+00 1.10367E-01 4.12804E-03
 -1      3568 8.72058E-03 1.12658E-01 0.00000E+00
 -1      3569 0.00000E+00 1.37219E-01 0.00000E+00
 -1      3570 0.00000E+00 1.24830E-01 6.45297E-03
 -1      3571 6.12444E-03 1.26315E-01 0.00000E+00
 -1      3572 0.00000E+00 1.33052E-01 8.58207E-03
 -1      3573 7.37858E-03 1.33125E-01 0.00000E+00
 -1      3574 6.78164E-03 1.30047E-01 7.00009E-03
 -1      3575 0.00000E+00 1.42076E-01 8.58207E-03
 -1      3576 0.00000E+00 1.59893E-01 0.00000E+00
 -1      3577 7.37858E-03 1.42150E-01 0.00000E+00
 -1      3578 9.04288E-03 1.52004E-01 0.00000E+00
 -1      3579 0.00000E+00 1.51650E-01 1.03272E-02
 -1      3580 6.51692E-03 1.46959E-01 7.32100E-03
 -1      3581 9.04288E-03 1.65653E-01 0.00000E+00
 -1      3582 0.00000E+00 1.65300E-01 1.03272E-02
 -1      3583 0.00000E+00 1.86243E-01 0.00000E+00
 -1      3584 0.00000E+00 1.78164E-01 1.22943E-02
 -1      3585 8.84740E-03 1.68744E-01 1.16266E-02
 -1      3586 1.08631E-02 1.78078E-01 0.00000E+00
 -1      3587 1.08631E-02 1.90779E-01 0.00000E+00
 -1      3588 0.00000E+00 1.90864E-01 1.22943E-02
 -1      3589 1.24162E-02 2.03450E-01 0.00000E+00
 -1      3590 1.16146E-02 1.98756E-01 1.08593E-02
 -1      3591 9.03707E-03 2.08985E-01 1.05023E-02
 -1      3592 0.00000E+00 2.04615E-01 1.51276E-02
 -1      3593 0.00000E+00 2.12597E-01 0.00000E+00
 -1      3594 0.00000E+00 2.44253E-01 0.00000E+00
 -1      3595 1.24162E-02 2.17103E-01 0.00000E+00
 -1      3596 0.00000E+00 2.31890E-01 1.74023E-02
 -1      3597 1.35964E-02 2.34390E-01 0.00000E+00
 -1      3598 9.03707E-03 2.22638E-01 1.05023E-02
 -1      3599 0.00000E+00 2.18268E-01 1.51276E-02
 -1      3600 0.00000E+00 2.79445E-01 0.00000E+00
 -1      3601 0.00000E+00 2.68211E-01 1.97182E-02
 -1      3602 2.42998E-02 2.67247E-01 0.00000E+00
 -1      3603 1.35964E-02 2.52393E-01 0.00000E+00
 -1      3604 0.00000E+00 2.49893E-01 1.74023E-02
 -1      3605 1.38590E-02 2.64724E-01 1.26898E-02
 -1      3606 0.00000E+00 2.85400E-01 1.97182E-02
 -1      3607 1.38590E-02 2.81913E-01 1.26898E-02
 -1      3608 0.00000E+00 3.02267E-01 2.06303E-02
 -1      3609 0.00000E+00 3.16346E-01 0.00000E+00
 -1      3610 2.52235E-02 3.05465E-01 0.00000E+00
 -1      3611 2.42998E-02 2.84436E-01 0.00000E+00
 -1      3612 1.52738E-02 2.97764E-01 1.32829E-02
 -1      3613 0.00000E+00 3.59178E-01 0.00000E+00
 -1      3614 2.64084E-02 3.44789E-01 0.00000E+00
 -1      3615 0.00000E+00 3.21979E-01 2.06303E-02
 -1      3616 2.06739E-02 3.41519E-01 1.66154E-02
 -1      3617 0.00000E+00 3.43307E-01 2.23546E-02
 -1      3618 2.52235E-02 3.25177E-01 0.00000E+00
 -1      3619 1.52738E-02 3.17477E-01 1.32829E-02
 -1      3620 0.00000E+00 4.10150E-01 0.00000E+00
 -1      3621 0.00000E+00 3.66426E-01 2.23546E-02
 -1      3622 0.00000E+00 3.93876E-01 2.39672E-02
 -1      3623 2.06739E-02 3.64638E-01 1.66154E-02
 -1      3624 2.64084E-02 3.67908E-01 0.00000E+00
 -1      3625 2.66987E-02 3.91171E-01 0.00000E+00
 -1      3626 0.00000E+00 4.78626E-01 0.00000E+00
 -1      3627 2.66987E-02 4.19024E-01 0.00000E+00
 -1      3628 0.00000E+00 4.56826E-01 2.56746E-02
 -1      3629 0.00000E+00 4.21729E-01 2.39672E-02
 -1      3630 2.80041E-02 4.51895E-01 0.00000E+00
 -1      3631 0.00000E+00 5.56489E-01 0.00000E+00
 -1      3632 0.00000E+00 5.39595E-01 2.78416E-02
 -1      3633 5.00000E-02 5.28487E-01 0.00000E+00
 -1      3634 5.00000E-02 5.09699E-01 2.96934E-02
 -1      3635 0.00000E+00 4.97449E-01 2.56746E-02
 -1      3636 2.80041E-02 4.92518E-01 0.00000E+00
 -1      3637 0.00000E+00 5.76836E-01 2.78416E-02
 -1      3638 5.00000E-02 5.65727E-01 0.00000E+00
 -1      3639 0.00000E+00 6.20633E-01 3.23840E-02
 -1      3640 5.00000E-02 6.04786E-01 0.00000E+00
 -1      3641 0.00000E+00 6.36116E-01 0.00000E+00
 -1      3642 2.16295E-02 6.01130E-01 2.11531E-02
 -1      3643 5.00000E-02 6.69617E-01 3.60797E-02
 -1      3644 0.00000E+00 7.01052E-01 3.11591E-02
 -1      3645 5.00000E-02 6.87712E-01 0.00000E+00
 -1      3646 0.00000E+00 7.16221E-01 0.00000E+00
 -1      3647 0.00000E+00 6.63019E-01 3.23840E-02
 -1      3648 5.00000E-02 6.47173E-01 0.00000E+00
 -1      3649 2.16295E-02 6.43516E-01 2.11531E-02
 -1      3650 0.00000E+00 7.93555E-01 0.00000E+00
 -1      3651 0.00000E+00 7.38770E-01 3.11591E-02
 -1      3652 5.00000E-02 7.63738E-01 0.00000E+00
 -1      3653 5.00000E-02 7.25430E-01 0.00000E+00
 -1      3654 0.00000E+00 7.73576E-01 2.93074E-02
 -1      3655 5.00000E-02 7.50303E-01 3.13352E-02
 -1      3656 2.58596E-02 7.83922E-01 0.00000E+00
 -1      3657 2.61223E-02 8.52716E-01 0.00000E+00
 -1      3658 0.00000E+00 8.13193E-01 2.93074E-02
 -1      3659 2.58596E-02 8.23539E-01 0.00000E+00
 -1      3660 2.11945E-02 8.43328E-01 2.03230E-02
 -1      3661 0.00000E+00 8.50969E-01 2.35589E-02
 -1      3662 0.00000E+00 8.57381E-01 0.00000E+00
 -1      3663 1.64580E-02 8.92375E-01 2.47562E-02
 -1      3664 2.61223E-02 8.76925E-01 0.00000E+00
 -1      3665 0.00000E+00 8.99059E-01 2.16767E-02
 -1      3666 1.71645E-02 8.98481E-01 0.00000E+00
 -1      3667 0.00000E+00 9.05132E-01 0.00000E+00
 -1      3668 2.11945E-02 8.67537E-01 2.03230E-02
 -1      3669 0.00000E+00 8.75178E-01 2.35589E-02
 -1      3670 0.00000E+00 9.43868E-01 2.01632E-02
 -1      3671 1.69446E-02 9.44324E-01 0.00000E+00
 -1      3672 0.00000E+00 9.48960E-01 0.00000E+00
 -1      3673 1.78104E-02 9.33522E-01 1.43599E-02
 -1      3674 0.00000E+00 9.22601E-01 2.16767E-02
 -1      3675 1.71645E-02 9.22023E-01 0.00000E+00
 -1      3676 1.69446E-02 9.64611E-01 0.00000E+00
 -1      3677 1.78104E-02 9.53808E-01 1.43599E-02
 -1      3678 0.00000E+00 9.64155E-01 2.01632E-02
 -1      3679 1.23825E-02 9.70387E-01 1.81922E-02
 -1      3680 1.00000E-01 1.20884E-01 0.00000E+00
 -1      3681 9.39304E-02 1.18428E-01 0.00000E+00
 -1      3682 1.00000E-01 1.12673E-01 7.57499E-03
 -1      3683 9.04383E-02 1.12505E-01 0.00000E+00
 -1      3684 1.00000E-01 1.20165E-01 7.57499E-03
 -1      3685 1.00000E-01 1.37967E-01 0.00000E+00
 -1      3686 1.00000E-01 1.32675E-01 8.89944E-03
 -1      3687 9.00987E-02 1.32679E-01 0.00000E+00
 -1      3688 9.27213E-02 1.28304E-01 8.18446E-03
 -1      3689 9.39304E-02 1.25920E-01 0.00000E+00
 -1      3690 1.00000E-01 1.58818E-01 0.00000E+00
 -1      3691 9.24785E-02 1.47472E-01 1.11599E-02
 -1      3692 1.00000E-01 1.52040E-01 9.13609E-03
 -1      3693 8.99009E-02 1.53901E-01 0.00000E+00
 -1      3694 1.00000E-01 1.42266E-01 8.89944E-03
 -1      3695 9.00987E-02 1.42271E-01 0.00000E+00
 -1      3696 8.99009E-02 1.65160E-01 0.00000E+00
 -1      3697 1.00000E-01 1.79045E-01 0.00000E+00
 -1      3698 1.00000E-01 1.63299E-01 9.13609E-03
 -1      3699 9.27229E-02 1.68665E-01 9.25157E-03
 -1      3700 1.00000E-01 1.73824E-01 1.04155E-02
 -1      3701 9.15965E-02 1.74653E-01 0.00000E+00
 -1      3702 1.00000E-01 2.01293E-01 0.00000E+00
 -1      3703 1.00000E-01 1.97404E-01 1.35798E-02
 -1      3704 1.00000E-01 1.82793E-01 1.04155E-02
 -1      3705 8.66583E-02 1.93974E-01 0.00000E+00
 -1      3706 8.89986E-02 1.89479E-01 1.04905E-02
 -1      3707 9.15965E-02 1.83622E-01 0.00000E+00
 -1      3708 1.00000E-01 2.25525E-01 1.58411E-02
 -1      3709 1.00000E-01 2.10683E-01 1.35798E-02
 -1      3710 8.66583E-02 2.07253E-01 0.00000E+00
 -1      3711 7.94846E-02 2.19337E-01 0.00000E+00
 -1      3712 8.82496E-02 2.18339E-01 1.21193E-02
 -1      3713 1.00000E-01 2.34836E-01 0.00000E+00
 -1      3714 1.00000E-01 2.45790E-01 1.58411E-02
 -1      3715 8.19055E-02 2.52651E-01 1.94271E-02
 -1      3716 1.00000E-01 2.62081E-01 1.77101E-02
 -1      3717 7.42998E-02 2.63669E-01 0.00000E+00
 -1      3718 8.20448E-02 2.71587E-01 1.57189E-02
 -1      3719 1.00000E-01 2.73961E-01 0.00000E+00
 -1      3720 7.94846E-02 2.39602E-01 0.00000E+00
 -1      3721 8.82496E-02 2.38604E-01 1.21193E-02
 -1      3722 8.42163E-02 3.05255E-01 1.32707E-02
 -1      3723 1.00000E-01 3.11764E-01 0.00000E+00
 -1      3724 1.00000E-01 2.99966E-01 1.83308E-02
 -1      3725 1.00000E-01 2.80940E-01 1.77101E-02
 -1      3726 7.52235E-02 3.03558E-01 0.00000E+00
 -1      3727 7.42998E-02 2.82529E-01 0.00000E+00
 -1      3728 8.20448E-02 2.90446E-01 1.57189E-02
 -1      3729 7.52235E-02 3.22502E-01 0.00000E+00
 -1      3730 1.00000E-01 3.18910E-01 1.83308E-02
 -1      3731 1.00000E-01 3.49724E-01 0.00000E+00
 -1      3732 1.00000E-01 3.37650E-01 2.05884E-02
 -1      3733 8.42163E-02 3.24199E-01 1.32707E-02
 -1      3734 7.64084E-02 3.42113E-01 0.00000E+00
 -1      3735 1.00000E-01 3.91744E-01 0.00000E+00
 -1      3736 7.66987E-02 3.84393E-01 0.00000E+00
 -1      3737 1.00000E-01 3.76318E-01 2.23254E-02
 -1      3738 1.00000E-01 3.56665E-01 2.05884E-02
 -1      3739 7.64084E-02 3.61129E-01 0.00000E+00
 -1      3740 7.66987E-02 4.07398E-01 0.00000E+00
 -1      3741 1.00000E-01 3.99323E-01 2.23254E-02
 -1      3742 1.00000E-01 4.26275E-01 2.43876E-02
 -1      3743 1.00000E-01 4.42575E-01 0.00000E+00
 -1      3744 7.80041E-02 4.40268E-01 0.00000E+00
 -1      3745 1.00000E-01 4.54100E-01 2.43876E-02
 -1      3746 1.00000E-01 5.04062E-01 0.00000E+00
 -1      3747 1.00000E-01 4.85275E-01 2.96934E-02
 -1      3748 7.80041E-02 4.68093E-01 0.00000E+00
 -1      3749 5.00000E-02 5.48833E-01 2.78416E-02
 -1      3750 1.00000E-01 5.57442E-01 3.66046E-02
 -1      3751 1.00000E-01 5.76783E-01 0.00000E+00
 -1      3752 7.16295E-02 5.73127E-01 2.11531E-02
 -1      3753 1.00000E-01 5.18937E-01 2.96934E-02
 -1      3754 7.80041E-02 5.01755E-01 0.00000E+00
 -1      3755 1.00000E-01 6.56382E-01 0.00000E+00
 -1      3756 1.00000E-01 5.96501E-01 3.66046E-02
 -1      3757 1.00000E-01 6.38287E-01 3.60797E-02
 -1      3758 7.16295E-02 6.12186E-01 2.11531E-02
 -1      3759 1.00000E-01 6.78826E-01 3.60797E-02
 -1      3760 5.00000E-02 7.10261E-01 3.11591E-02
 -1      3761 1.00000E-01 7.21794E-01 3.13352E-02
 -1      3762 1.00000E-01 7.35229E-01 0.00000E+00
 -1      3763 1.00000E-01 8.05081E-01 0.00000E+00
 -1      3764 1.00000E-01 7.91168E-01 2.81948E-02
 -1      3765 7.58596E-02 7.93722E-01 0.00000E+00
 -1      3766 1.00000E-01 7.60102E-01 3.13352E-02
 -1      3767 1.00000E-01 8.62138E-01 0.00000E+00
 -1      3768 7.61223E-02 8.54442E-01 0.00000E+00
 -1      3769 7.58596E-02 8.25265E-01 0.00000E+00
 -1      3770 1.00000E-01 8.53159E-01 2.19893E-02
 -1      3771 1.00000E-01 8.22711E-01 2.81948E-02
 -1      3772 7.11945E-02 8.45054E-01 2.03230E-02
 -1      3773 1.00000E-01 8.78673E-01 2.19893E-02
 -1      3774 1.00000E-01 9.08397E-01 0.00000E+00
 -1      3775 7.61223E-02 8.79956E-01 0.00000E+00
 -1      3776 8.22066E-02 8.92827E-01 1.91211E-02
 -1      3777 1.00000E-01 8.97294E-01 1.76159E-02
 -1      3778 8.59819E-02 9.00228E-01 0.00000E+00
 -1      3779 1.00000E-01 9.47701E-01 0.00000E+00
 -1      3780 1.00000E-01 9.18039E-01 1.76159E-02
 -1      3781 8.32239E-02 9.38491E-01 0.00000E+00
 -1      3782 8.59819E-02 9.20973E-01 0.00000E+00
 -1      3783 1.00000E-01 9.35636E-01 1.42894E-02
 -1      3784 1.00000E-01 9.54194E-01 1.42894E-02
 -1      3785 1.00000E-01 9.67338E-01 2.27963E-02
 -1      3786 8.32239E-02 9.57049E-01 0.00000E+00
 -1      3787 8.86647E-02 9.68040E-01 1.32449E-02
 -1      3788 2.47987E-02 8.57784E-01 4.69883E-01
 -1      3789 0.00000E+00 8.29767E-01 4.55413E-01
 -1      3790 0.00000E+00 8.08631E-01 4.66861E-01
 -1      3791 2.51594E-02 8.25875E-01 4.76816E-01
 -1      3792 0.00000E+00 8.09879E-01 4.43931E-01
 -1      3793 2.51594E-02 8.05986E-01 4.65334E-01
 -1      3794 2.92525E-02 7.79321E-01 4.49939E-01
 -1      3795 0.00000E+00 7.63127E-01 4.40590E-01
 -1      3796 0.00000E+00 7.90229E-01 4.29109E-01
 -1      3797 0.00000E+00 7.37298E-01 3.94293E-01
 -1      3798 5.00000E-02 7.17615E-01 4.14313E-01
 -1      3799 0.00000E+00 7.03080E-01 4.05922E-01
 -1      3800 2.92525E-02 7.53705E-01 4.35150E-01
 -1      3801 0.00000E+00 7.64614E-01 4.14320E-01
 -1      3802 0.00000E+00 7.02867E-01 3.74414E-01
 -1      3803 5.00000E-02 6.83183E-01 3.94434E-01
 -1      3804 5.00000E-02 6.83507E-01 3.55774E-01
 -1      3805 5.00000E-02 6.48509E-01 3.74415E-01
 -1      3806 0.00000E+00 6.32694E-01 3.65285E-01
 -1      3807 0.00000E+00 6.66856E-01 3.47375E-01
 -1      3808 5.00000E-02 6.11481E-01 3.10099E-01
 -1      3809 5.00000E-02 6.12554E-01 3.53657E-01
 -1      3810 0.00000E+00 6.30902E-01 3.26617E-01
 -1      3811 0.00000E+00 5.93093E-01 3.03596E-01
 -1      3812 5.00000E-02 5.74342E-01 3.31596E-01
 -1      3813 0.00000E+00 5.58495E-01 3.22446E-01
 -1      3814 0.00000E+00 4.83986E-01 2.79429E-01
 -1      3815 0.00000E+00 5.16109E-01 2.65070E-01
 -1      3816 5.00000E-02 5.34189E-01 2.64079E-01
 -1      3817 5.00000E-02 4.98470E-01 2.87791E-01
 -1      3818 0.00000E+00 5.54849E-01 2.81516E-01
 -1      3819 5.00000E-02 5.36098E-01 3.09516E-01
 -1      3820 0.00000E+00 4.15560E-01 2.39923E-01
 -1      3821 5.00000E-02 4.29127E-01 2.47756E-01
 -1      3822 0.00000E+00 4.45238E-01 2.24451E-01
 -1      3823 5.00000E-02 4.58934E-01 2.25937E-01
 -1      3824 0.00000E+00 4.79843E-01 2.44132E-01
 -1      3825 5.00000E-02 4.62204E-01 2.66853E-01
 -1      3826 0.00000E+00 3.55869E-01 2.05461E-01
 -1      3827 0.00000E+00 3.80766E-01 1.88693E-01
 -1      3828 0.00000E+00 4.13078E-01 2.05884E-01
 -1      3829 5.00000E-02 3.96967E-01 2.29189E-01
 -1      3830 5.00000E-02 3.68711E-01 2.12875E-01
 -1      3831 5.00000E-02 3.95237E-01 1.93425E-01
 -1      3832 0.00000E+00 3.04432E-01 1.75764E-01
 -1      3833 0.00000E+00 3.26361E-01 1.61147E-01
 -1      3834 0.00000E+00 3.53235E-01 1.72798E-01
 -1      3835 5.00000E-02 3.41180E-01 1.96980E-01
 -1      3836 2.83469E-02 3.11449E-01 1.79815E-01
 -1      3837 0.00000E+00 2.62149E-01 1.51352E-01
 -1      3838 0.00000E+00 2.84297E-01 1.40519E-01
 -1      3839 2.61735E-02 2.67533E-01 1.54461E-01
 -1      3840 0.00000E+00 3.02455E-01 1.47345E-01
 -1      3841 2.83469E-02 2.87543E-01 1.66014E-01
 -1      3842 0.00000E+00 2.26044E-01 1.30507E-01
 -1      3843 2.18267E-02 2.31229E-01 1.33501E-01
 -1      3844 0.00000E+00 2.48954E-01 1.23042E-01
 -1      3845 0.00000E+00 2.65920E-01 1.29909E-01
 -1      3846 2.61735E-02 2.49156E-01 1.43851E-01
 -1      3847 0.00000E+00 1.93678E-01 1.11821E-01
 -1      3848 0.00000E+00 2.31226E-01 1.12806E-01
 -1      3849 2.18267E-02 2.13501E-01 1.23266E-01
 -1      3850 1.69553E-02 1.99802E-01 1.15356E-01
 -1      3851 0.00000E+00 2.25898E-01 9.60466E-02
 -1      3852 0.00000E+00 2.08750E-01 9.44028E-02
 -1      3853 1.35213E-02 2.13568E-01 1.03802E-01
 -1      3854 1.69553E-02 1.85163E-01 1.06905E-01
 -1      3855 1.06135E-02 1.82225E-01 8.56623E-02
 -1      3856 0.00000E+00 1.94111E-01 8.59515E-02
 -1      3857 1.35213E-02 1.98930E-01 9.53511E-02
 -1      3858 1.52688E-02 1.71206E-01 9.88468E-02
 -1      3859 0.00000E+00 1.64209E-01 9.48072E-02
 -1      3860 0.00000E+00 1.76690E-01 8.64680E-02
 -1      3861 0.00000E+00 1.40523E-01 8.11321E-02
 -1      3862 1.18009E-02 1.43720E-01 8.29782E-02
 -1      3863 8.93821E-03 1.53369E-01 7.61119E-02
 -1      3864 0.00000E+00 1.47330E-01 7.40066E-02
 -1      3865 1.52688E-02 1.56375E-01 9.02843E-02
 -1      3866 0.00000E+00 1.61859E-01 7.79055E-02
 -1      3867 0.00000E+00 1.22630E-01 7.08020E-02
 -1      3868 8.89195E-03 1.27122E-01 7.33950E-02
 -1      3869 1.18009E-02 1.34865E-01 7.78655E-02
 -1      3870 0.00000E+00 1.38475E-01 6.88939E-02
 -1      3871 0.00000E+00 1.30351E-01 6.73731E-02
 -1      3872 6.72408E-03 1.33371E-01 6.60041E-02
 -1      3873 0.00000E+00 1.05724E-01 6.10412E-02
 -1      3874 0.00000E+00 1.15825E-01 5.70991E-02
 -1      3875 6.12583E-03 1.10671E-01 6.38973E-02
 -1      3876 0.00000E+00 1.21314E-01 6.21557E-02
 -1      3877 8.89195E-03 1.18085E-01 6.81776E-02
 -1      3878 0.00000E+00 1.07955E-01 5.25556E-02
 -1      3879 6.04203E-03 9.22273E-02 5.32489E-02
 -1      3880 0.00000E+00 9.22273E-02 5.32489E-02
 -1      3881 0.00000E+00 9.49067E-02 4.78546E-02
 -1      3882 0.00000E+00 1.01447E-01 4.64819E-02
 -1      3883 6.12583E-03 1.02801E-01 5.93538E-02
 -1      3884 8.99890E-03 9.76955E-02 5.64059E-02
 -1      3885 6.04203E-03 8.66000E-02 5.00000E-02
 -1      3886 0.00000E+00 8.94409E-02 4.46859E-02
 -1      3887 6.03933E-03 8.94395E-02 4.46882E-02
 -1      3888 1.39642E-02 9.03211E-02 4.28259E-02
 -1      3889 1.50409E-02 9.20682E-02 5.31570E-02
 -1      3890 1.84764E-02 8.66000E-02 5.00000E-02
 -1      3891 3.18875E-02 8.66000E-02 5.00000E-02
 -1      3892 2.90102E-02 9.17201E-02 5.29561E-02
 -1      3893 2.77768E-02 8.92568E-02 4.50300E-02
 -1      3894 2.03461E-02 9.03198E-02 4.28287E-02
 -1      3895 2.14333E-02 9.20682E-02 5.31570E-02
 -1      3896 4.66178E-02 8.66000E-02 5.00000E-02
 -1      3897 4.34648E-02 9.21673E-02 5.32143E-02
 -1      3898 3.60289E-02 9.17201E-02 5.29561E-02
 -1      3899 3.47918E-02 8.92565E-02 4.50305E-02
 -1      3900 4.13583E-02 8.99960E-02 4.35435E-02
 -1      3901 4.90611E-02 8.99948E-02 4.35460E-02
 -1      3902 5.11764E-02 9.21673E-02 5.32143E-02
 -1      3903 6.27682E-02 8.66000E-02 5.00000E-02
 -1      3904 5.70248E-02 9.04058E-02 4.26390E-02
 -1      3905 5.88603E-02 9.21323E-02 5.31940E-02
 -1      3906 5.48361E-02 9.73646E-02 4.73391E-02
 -1      3907 7.34168E-02 9.04458E-02 4.25507E-02
 -1      3908 7.92102E-02 8.66000E-02 5.00000E-02
 -1      3909 7.59236E-02 9.20081E-02 5.31223E-02
 -1      3910 6.54501E-02 9.04041E-02 4.26427E-02
 -1      3911 6.72991E-02 9.21323E-02 5.31940E-02
 -1      3912 9.36068E-02 8.66000E-02 5.00000E-02
 -1      3913 8.14070E-02 9.04438E-02 4.25550E-02
 -1      3914 8.39269E-02 9.20081E-02 5.31223E-02
 -1      3915 9.36034E-02 8.95340E-02 4.45118E-02
 -1      3916 8.80394E-02 9.07208E-02 4.19431E-02
 -1      3917 9.36068E-02 9.27218E-02 5.35344E-02
 -1      3918 1.00000E-01 8.95323E-02 4.45148E-02
 -1      3919 1.00000E-01 9.27218E-02 5.35344E-02
 -1      3920 7.47987E-02 8.60076E-01 4.71206E-01
 -1      3921 1.00000E-01 8.47055E-01 4.59190E-01
 -1      3922 1.00000E-01 8.13369E-01 4.69596E-01
 -1      3923 1.00000E-01 8.28618E-01 4.59422E-01
 -1      3924 7.51594E-02 8.28167E-01 4.78140E-01
 -1      3925 1.00000E-01 7.92650E-01 4.33024E-01
 -1      3926 1.00000E-01 7.75101E-01 4.47503E-01
 -1      3927 7.92525E-02 7.81767E-01 4.51351E-01
 -1      3928 1.00000E-01 8.08883E-01 4.48028E-01
 -1      3929 7.51594E-02 8.08432E-01 4.66746E-01
 -1      3930 1.00000E-01 7.27143E-01 4.19814E-01
 -1      3931 1.00000E-01 7.58322E-01 4.06973E-01
 -1      3932 1.00000E-01 7.74117E-01 4.22324E-01
 -1      3933 7.92525E-02 7.63234E-01 4.40651E-01
 -1      3934 1.00000E-01 6.63044E-01 3.82807E-01
 -1      3935 1.00000E-01 6.98042E-01 3.64165E-01
 -1      3936 7.92525E-02 7.33809E-01 4.23663E-01
 -1      3937 1.00000E-01 7.28896E-01 3.89985E-01
 -1      3938 5.00000E-02 7.17402E-01 3.82806E-01
 -1      3939 1.00000E-01 6.27296E-01 3.19230E-01
 -1      3940 1.00000E-01 5.90157E-01 3.40726E-01
 -1      3941 1.00000E-01 6.63368E-01 3.44146E-01
 -1      3942 5.00000E-02 6.46717E-01 3.35748E-01
 -1      3943 1.00000E-01 5.14317E-01 2.96940E-01
 -1      3944 1.00000E-01 5.50036E-01 2.73229E-01
 -1      3945 5.00000E-02 5.70696E-01 2.90665E-01
 -1      3946 1.00000E-01 5.89084E-01 2.97168E-01
 -1      3947 1.00000E-01 4.43612E-01 2.56119E-01
 -1      3948 1.00000E-01 5.12408E-01 2.51504E-01
 -1      3949 1.00000E-01 4.73418E-01 2.34299E-01
 -1      3950 5.00000E-02 4.94328E-01 2.52494E-01
 -1      3951 1.00000E-01 4.40341E-01 2.15202E-01
 -1      3952 5.00000E-02 4.26645E-01 2.13717E-01