    1C
    1UModel: segment                                                    
    1UUSER                                                              
    1UDATE              15.april.2025                                   
    1UTIME              19:07:06                                        
    1UHOST                                                              
    1UPGM               CalculiX                                        
    1UVERSION           Version DEVELOPMENT                             
    1UCOMPILETIME       Tue Apr 15 17:57:22 CEST 2025                    
    1UDIR                                                               
    1UDBN                                                               
    1UMAT    1EL                                                        
    2C                          2756                                     1
 -1       254 0.00000E+00 4.38784E-01 1.15402E-01
 -1       260 0.00000E+00 5.05112E-01 1.02696E-01
 -1       273 0.00000E+00 5.01285E-01 1.67726E-01
 -1      1150 0.00000E+00 4.90808E-01 1.17530E-01
 -1      1206 0.00000E+00 4.75127E-01 1.43234E-01
 -1      1207 0.00000E+00 5.16965E-01 1.42022E-01
 -1      2757 1.54874E-02 1.00000E+00 0.00000E+00
 -1      2758 0.00000E+00 9.99719E-01 1.71847E-02
 -1      2759 0.00000E+00 9.84623E-01 0.00000E+00
 -1      2760 1.54878E-02 9.99719E-01 1.71850E-02
 -1      2761 1.54874E-02 9.84623E-01 0.00000E+00
 -1      2762 4.78549E-02 1.00000E+00 0.00000E+00
 -1      2763 3.05862E-02 9.99637E-01 2.22246E-02
 -1      2764 4.72433E-02 9.99693E-01 1.87628E-02
 -1      2765 4.02748E-02 9.85147E-01 1.21292E-02
 -1      2766 3.24320E-02 9.79987E-01 0.00000E+00
 -1      2767 2.78700E-02 9.85763E-01 1.81922E-02
 -1      2768 8.23675E-02 1.00000E+00 0.00000E+00
 -1      2769 6.41245E-02 9.99693E-01 1.87618E-02
 -1      2770 8.23675E-02 9.99731E-01 1.64303E-02
 -1      2771 4.93121E-02 9.79987E-01 0.00000E+00
 -1      2772 8.23675E-02 9.83130E-01 0.00000E+00
 -1      2773 5.71549E-02 9.85147E-01 1.21292E-02
 -1      2774 6.55914E-02 9.73919E-01 0.00000E+00
 -1      2775 7.10322E-02 9.84910E-01 1.32449E-02
 -1      2776 1.00000E-01 9.83130E-01 0.00000E+00
 -1      2777 1.00000E-01 9.99731E-01 1.64303E-02
 -1      2778 1.50987E-02 9.99137E-01 3.94040E-02
 -1      2779 0.00000E+00 9.98399E-01 5.44170E-02
 -1      2780 0.00000E+00 9.79223E-01 3.73473E-02
 -1      2781 0.00000E+00 9.84315E-01 1.71842E-02
 -1      2782 1.23825E-02 9.85455E-01 3.53764E-02
 -1      2783 2.87665E-02 9.97051E-01 7.52643E-02
 -1      2784 0.00000E+00 9.74527E-01 7.73127E-02
 -1      2785 0.00000E+00 9.78090E-01 5.73876E-02
 -1      2786 2.59011E-02 9.95362E-01 9.58650E-02
 -1      2787 0.00000E+00 9.95306E-01 9.65474E-02
 -1      2788 1.51004E-02 9.98152E-01 5.94547E-02
 -1      2789 1.32348E-02 9.82059E-01 7.66713E-02
 -1      2790 1.23825E-02 9.84322E-01 5.54166E-02
 -1      2791 2.34100E-02 9.89557E-01 1.43258E-01
 -1      2792 0.00000E+00 9.89658E-01 1.42577E-01
 -1      2793 1.73057E-02 9.69704E-01 1.29843E-01
 -1      2794 1.75713E-02 9.68483E-01 1.11820E-01
 -1      2795 0.00000E+00 9.72378E-01 9.93784E-02
 -1      2796 0.00000E+00 9.68324E-01 1.23207E-01
 -1      2797 1.32348E-02 9.79911E-01 9.87371E-02
 -1      2798 2.59039E-02 9.92899E-01 1.17897E-01
 -1      2799 0.00000E+00 9.64908E-01 1.47167E-01
 -1      2800 1.73057E-02 9.66288E-01 1.53803E-01
 -1      2801 0.00000E+00 9.80536E-01 1.96250E-01
 -1      2802 0.00000E+00 9.57796E-01 1.76715E-01
 -1      2803 2.34061E-02 9.85865E-01 1.67182E-01
 -1      2804 0.00000E+00 9.65843E-01 2.59116E-01
 -1      2805 0.00000E+00 9.44751E-01 2.36887E-01
 -1      2806 5.00000E-02 9.76036E-01 2.17088E-01
 -1      2807 5.00022E-02 9.69039E-01 2.46397E-01
 -1      2808 2.42995E-02 9.49446E-01 2.07525E-01
 -1      2809 0.00000E+00 9.51877E-01 2.06371E-01
 -1      2810 2.34094E-02 9.80389E-01 1.96930E-01
 -1      2811 4.99988E-02 9.50405E-01 3.10633E-01
 -1      2812 5.00000E-02 9.28394E-01 2.90689E-01
 -1      2813 5.00002E-02 9.60017E-01 2.79517E-01
 -1      2814 0.00000E+00 9.35855E-01 2.70032E-01
 -1      2815 2.37072E-02 9.45240E-01 3.26171E-01
 -1      2816 0.00000E+00 9.47174E-01 3.20688E-01
 -1      2817 0.00000E+00 9.26463E-01 3.01453E-01
 -1      2818 0.00000E+00 9.27783E-01 3.72813E-01
 -1      2819 0.00000E+00 9.11161E-01 3.57504E-01
 -1      2820 2.37009E-02 9.35053E-01 3.54416E-01
 -1      2821 0.00000E+00 9.16826E-01 3.29883E-01
 -1      2822 2.46273E-02 9.14228E-01 4.04954E-01
 -1      2823 2.37031E-02 9.25643E-01 3.78228E-01
 -1      2824 0.00000E+00 9.01579E-01 3.81240E-01
 -1      2825 0.00000E+00 8.94306E-01 4.04385E-01
 -1      2826 1.29205E-02 9.02156E-01 3.93689E-01
 -1      2827 0.00000E+00 9.09649E-01 4.15284E-01
 -1      2828 0.00000E+00 8.92070E-01 4.51646E-01
 -1      2829 2.46273E-02 9.05680E-01 4.23676E-01
 -1      2830 2.48002E-02 8.94086E-01 4.47722E-01
 -1      2831 2.16544E-02 8.78065E-01 4.23222E-01
 -1      2832 0.00000E+00 8.85770E-01 4.23112E-01
 -1      2833 1.29205E-02 8.93620E-01 4.12416E-01
 -1      2834 0.00000E+00 8.74560E-01 4.84651E-01
 -1      2835 1.54880E-02 8.74560E-01 4.84651E-01
 -1      2836 0.00000E+00 8.55770E-01 4.73804E-01
 -1      2837 0.00000E+00 8.57018E-01 4.50874E-01
 -1      2838 0.00000E+00 8.76856E-01 4.40799E-01
 -1      2839 2.47987E-02 8.85035E-01 4.65343E-01
 -1      2840 2.16544E-02 8.69151E-01 4.40909E-01
 -1      2841 1.54874E-02 8.66030E-01 5.00000E-01
 -1      2842 0.00000E+00 8.47275E-01 4.89172E-01
 -1      2843 4.78549E-02 8.66030E-01 5.00000E-01
 -1      2844 4.06468E-02 8.44630E-01 4.87645E-01
 -1      2845 4.02867E-02 8.76700E-01 4.80799E-01
 -1      2846 1.54874E-02 8.47275E-01 4.89172E-01
 -1      2847 5.75269E-02 8.44630E-01 4.87645E-01
 -1      2848 5.71657E-02 8.76700E-01 4.80799E-01
 -1      2849 8.23675E-02 8.74072E-01 4.85528E-01
 -1      2850 8.23675E-02 8.66030E-01 5.00000E-01
 -1      2851 8.23675E-02 8.49567E-01 4.90495E-01
 -1      2852 1.00000E-01 8.74072E-01 4.85528E-01
 -1      2853 1.00000E-01 8.49567E-01 4.90495E-01
 -1      2854 8.17570E-02 9.99344E-01 3.51905E-02
 -1      2855 1.00000E-01 9.82859E-01 1.64303E-02
 -1      2856 8.86647E-02 9.84639E-01 2.96752E-02
 -1      2857 1.00000E-01 9.98579E-01 5.07539E-02
 -1      2858 1.00000E-01 9.83937E-01 3.92266E-02
 -1      2859 8.96057E-02 9.84247E-01 4.41023E-02
 -1      2860 1.00000E-01 9.95967E-01 8.84853E-02
 -1      2861 8.17562E-02 9.98465E-01 5.30848E-02
 -1      2862 7.87665E-02 9.97289E-01 7.23607E-02
 -1      2863 8.85086E-02 9.80332E-01 7.55993E-02
 -1      2864 1.00000E-01 9.80417E-01 7.44329E-02
 -1      2865 1.00000E-01 9.83005E-01 5.71172E-02
 -1      2866 8.96057E-02 9.83315E-01 6.19929E-02
 -1      2867 7.87647E-02 9.95662E-01 9.22069E-02
 -1      2868 1.00000E-01 9.78622E-01 9.42611E-02
 -1      2869 7.59039E-02 9.93490E-01 1.12756E-01
 -1      2870 1.00000E-01 9.91336E-01 1.31269E-01
 -1      2871 8.85086E-02 9.78536E-01 9.54275E-02
 -1      2872 1.00000E-01 9.72948E-01 1.17122E-01
 -1      2873 8.33079E-02 9.74747E-01 1.15821E-01
 -1      2874 7.59026E-02 9.90677E-01 1.35710E-01
 -1      2875 1.00000E-01 9.69918E-01 1.40045E-01
 -1      2876 8.33079E-02 9.71717E-01 1.38744E-01
 -1      2877 1.00000E-01 9.61725E-01 1.58309E-01
 -1      2878 1.00000E-01 9.83292E-01 1.81320E-01
 -1      2879 7.34058E-02 9.86923E-01 1.61017E-01
 -1      2880 1.00000E-01 9.71207E-01 2.37744E-01
 -1      2881 1.00000E-01 9.45924E-01 2.16892E-01
 -1      2882 1.00000E-01 9.56714E-01 1.85418E-01
 -1      2883 7.34037E-02 9.82048E-01 1.88159E-01
 -1      2884 7.42995E-02 9.51331E-01 1.98800E-01
 -1      2885 1.00000E-01 9.54415E-01 2.98152E-01
 -1      2886 1.00000E-01 9.32023E-01 2.78093E-01
 -1      2887 5.00000E-02 9.39484E-01 2.57437E-01
 -1      2888 1.00000E-01 9.38772E-01 2.46166E-01
 -1      2889 7.42995E-02 9.44179E-01 2.28075E-01
 -1      2890 1.00000E-01 9.22315E-01 3.09175E-01
 -1      2891 7.37001E-02 9.38683E-01 3.44497E-01
 -1      2892 1.00000E-01 9.19259E-01 3.36524E-01
 -1      2893 1.00000E-01 9.33998E-01 3.57084E-01
 -1      2894 7.72582E-02 8.95607E-01 3.73897E-01
 -1      2895 7.46273E-02 9.16755E-01 3.99126E-01
 -1      2896 1.00000E-01 9.12041E-01 4.09999E-01
 -1      2897 1.00000E-01 9.01301E-01 3.89957E-01
 -1      2898 7.37002E-02 9.27978E-01 3.72319E-01
 -1      2899 1.00000E-01 9.08645E-01 3.64377E-01
 -1      2900 7.47973E-02 8.93834E-01 4.48213E-01
 -1      2901 1.00000E-01 8.91360E-01 4.53029E-01
 -1      2902 1.00000E-01 8.80691E-01 4.36139E-01
 -1      2903 7.46273E-02 9.05444E-01 4.24174E-01
 -1      2904 1.00000E-01 8.90002E-01 4.15011E-01
 -1      2905 1.00000E-01 8.57604E-01 4.76020E-01
 -1      2906 7.47987E-02 8.84576E-01 4.66236E-01
 -1      2907 1.00000E-01 8.71554E-01 4.54220E-01
 -1      2908 0.00000E+00 1.06499E-01 0.00000E+00
 -1      2909 0.00000E+00 1.03869E-01 4.12804E-03
 -1      2910 6.04201E-03 1.00000E-01 0.00000E+00
 -1      2911 0.00000E+00 9.98179E-02 5.55756E-03
 -1      2912 6.04000E-03 9.98179E-02 5.55537E-03
 -1      2913 1.84764E-02 1.00000E-01 0.00000E+00
 -1      2914 1.40169E-02 9.96222E-02 8.20073E-03
 -1      2915 6.04201E-03 1.03869E-01 4.12804E-03
 -1      2916 1.47626E-02 1.06159E-01 0.00000E+00
 -1      2917 6.04201E-03 1.06499E-01 0.00000E+00
 -1      2918 3.18874E-02 1.00000E-01 0.00000E+00
 -1      2919 2.87012E-02 1.06498E-01 0.00000E+00
 -1      2920 2.81046E-02 9.97910E-02 6.37301E-03
 -1      2921 2.03983E-02 9.96225E-02 8.19772E-03
 -1      2922 2.11549E-02 1.06159E-01 0.00000E+00
 -1      2923 3.90978E-02 1.05647E-01 7.05787E-03
 -1      2924 3.51178E-02 9.97910E-02 6.37264E-03
 -1      2925 3.57199E-02 1.06498E-01 0.00000E+00
 -1      2926 4.66178E-02 1.00000E-01 0.00000E+00
 -1      2927 4.37730E-02 1.07115E-01 0.00000E+00
 -1      2928 4.27477E-02 9.95111E-02 9.32670E-03
 -1      2929 6.27682E-02 1.00000E-01 0.00000E+00
 -1      2930 6.01410E-02 9.95492E-02 8.94118E-03
 -1      2931 5.04418E-02 9.95111E-02 9.32663E-03
 -1      2932 5.14847E-02 1.07115E-01 0.00000E+00
 -1      2933 5.60404E-02 1.07083E-01 9.93306E-03
 -1      2934 5.99501E-02 1.06185E-01 0.00000E+00
 -1      2935 6.83888E-02 1.06185E-01 0.00000E+00
 -1      2936 7.60418E-02 1.05809E-01 0.00000E+00
 -1      2937 7.92103E-02 1.00000E-01 0.00000E+00
 -1      2938 7.76776E-02 9.95475E-02 8.95837E-03
 -1      2939 6.85636E-02 9.95487E-02 8.94595E-03
 -1      2940 7.28422E-02 1.07646E-01 6.74293E-03
 -1      2941 8.56666E-02 9.95468E-02 8.96533E-03
 -1      2942 9.36101E-02 9.97897E-02 6.41199E-03
 -1      2943 9.36068E-02 1.00000E-01 0.00000E+00
 -1      2944 9.36068E-02 1.05977E-01 7.57499E-03
 -1      2945 8.40450E-02 1.05809E-01 0.00000E+00
 -1      2946 9.36068E-02 1.06696E-01 0.00000E+00
 -1      2947 1.00000E-01 1.06696E-01 0.00000E+00
 -1      2948 1.00000E-01 9.97897E-02 6.41529E-03
 -1      2949 1.00000E-01 1.05977E-01 7.57499E-03
 -1      2950 6.12444E-03 1.18716E-01 0.00000E+00
 -1      2951 0.00000E+00 1.20596E-01 0.00000E+00
 -1      2952 0.00000E+00 1.17231E-01 6.45297E-03
 -1      2953 0.00000E+00 1.10367E-01 4.12804E-03
 -1      2954 8.72058E-03 1.12658E-01 0.00000E+00
 -1      2955 0.00000E+00 1.37219E-01 0.00000E+00
 -1      2956 0.00000E+00 1.24830E-01 6.45297E-03
 -1      2957 6.12444E-03 1.26315E-01 0.00000E+00
 -1      2958 0.00000E+00 1.33052E-01 8.58207E-03
 -1      2959 7.37858E-03 1.33125E-01 0.00000E+00
 -1      2960 6.78164E-03 1.30047E-01 7.00009E-03
 -1      2961 0.00000E+00 1.42076E-01 8.58207E-03
 -1      2962 0.00000E+00 1.59893E-01 0.00000E+00
 -1      2963 7.37858E-03 1.42150E-01 0.00000E+00
 -1      2964 9.04288E-03 1.52004E-01 0.00000E+00
 -1      2965 0.00000E+00 1.51650E-01 1.03272E-02
 -1      2966 6.51692E-03 1.46959E-01 7.32100E-03
 -1      2967 9.04288E-03 1.65653E-01 0.00000E+00
 -1      2968 0.00000E+00 1.65300E-01 1.03272E-02
 -1      2969 0.00000E+00 1.86243E-01 0.00000E+00
 -1      2970 0.00000E+00 1.78164E-01 1.22943E-02
 -1      2971 8.84740E-03 1.68744E-01 1.16266E-02
 -1      2972 1.08631E-02 1.78078E-01 0.00000E+00
 -1      2973 1.08631E-02 1.90779E-01 0.00000E+00
 -1      2974 0.00000E+00 1.90864E-01 1.22943E-02
 -1      2975 1.24162E-02 2.03450E-01 0.00000E+00
 -1      2976 1.16146E-02 1.98756E-01 1.08593E-02
 -1      2977 9.03707E-03 2.08985E-01 1.05023E-02
 -1      2978 0.00000E+00 2.04615E-01 1.51276E-02
 -1      2979 0.00000E+00 2.12597E-01 0.00000E+00
 -1      2980 0.00000E+00 2.44253E-01 0.00000E+00
 -1      2981 1.24162E-02 2.17103E-01 0.00000E+00
 -1      2982 0.00000E+00 2.31890E-01 1.74023E-02
 -1      2983 1.35964E-02 2.34390E-01 0.00000E+00
 -1      2984 9.03707E-03 2.22638E-01 1.05023E-02
 -1      2985 0.00000E+00 2.18268E-01 1.51276E-02
 -1      2986 0.00000E+00 2.79445E-01 0.00000E+00
 -1      2987 0.00000E+00 2.68211E-01 1.97182E-02
 -1      2988 2.42998E-02 2.67247E-01 0.00000E+00
 -1      2989 1.35964E-02 2.52393E-01 0.00000E+00
 -1      2990 0.00000E+00 2.49893E-01 1.74023E-02
 -1      2991 1.38590E-02 2.64724E-01 1.26898E-02
 -1      2992 0.00000E+00 2.85400E-01 1.97182E-02
 -1      2993 1.38590E-02 2.81913E-01 1.26898E-02
 -1      2994 0.00000E+00 3.02267E-01 2.06303E-02
 -1      2995 0.00000E+00 3.16346E-01 0.00000E+00
 -1      2996 2.52235E-02 3.05465E-01 0.00000E+00
 -1      2997 2.42998E-02 2.84436E-01 0.00000E+00
 -1      2998 1.52738E-02 2.97764E-01 1.32829E-02
 -1      2999 0.00000E+00 3.59178E-01 0.00000E+00
 -1      3000 2.64084E-02 3.44789E-01 0.00000E+00
 -1      3001 0.00000E+00 3.21979E-01 2.06303E-02
 -1      3002 2.06739E-02 3.41519E-01 1.66154E-02
 -1      3003 0.00000E+00 3.43307E-01 2.23546E-02
 -1      3004 2.52235E-02 3.25177E-01 0.00000E+00
 -1      3005 1.52738E-02 3.17477E-01 1.32829E-02
 -1      3006 0.00000E+00 4.10150E-01 0.00000E+00
 -1      3007 0.00000E+00 3.66426E-01 2.23546E-02
 -1      3008 0.00000E+00 3.93876E-01 2.39672E-02
 -1      3009 2.06739E-02 3.64638E-01 1.66154E-02
 -1      3010 2.64084E-02 3.67908E-01 0.00000E+00
 -1      3011 2.66987E-02 3.91171E-01 0.00000E+00
 -1      3012 0.00000E+00 4.78626E-01 0.00000E+00
 -1      3013 2.66987E-02 4.19024E-01 0.00000E+00
 -1      3014 0.00000E+00 4.56826E-01 2.56746E-02
 -1      3015 0.00000E+00 4.21729E-01 2.39672E-02
 -1      3016 2.80041E-02 4.51895E-01 0.00000E+00
 -1      3017 0.00000E+00 5.56489E-01 0.00000E+00
 -1      3018 0.00000E+00 5.39595E-01 2.78416E-02
 -1      3019 5.00000E-02 5.28487E-01 0.00000E+00
 -1      3020 5.00000E-02 5.09699E-01 2.96934E-02
 -1      3021 0.00000E+00 4.97449E-01 2.56746E-02
 -1      3022 2.80041E-02 4.92518E-01 0.00000E+00
 -1      3023 0.00000E+00 5.76836E-01 2.78416E-02
 -1      3024 5.00000E-02 5.65727E-01 0.00000E+00
 -1      3025 0.00000E+00 6.20633E-01 3.23840E-02
 -1      3026 5.00000E-02 6.04786E-01 0.00000E+00
 -1      3027 0.00000E+00 6.36116E-01 0.00000E+00
 -1      3028 2.16295E-02 6.01130E-01 2.11531E-02
 -1      3029 5.00000E-02 6.69617E-01 3.60797E-02
 -1      3030 0.00000E+00 7.01052E-01 3.11591E-02
 -1      3031 5.00000E-02 6.87712E-01 0.00000E+00
 -1      3032 0.00000E+00 7.16221E-01 0.00000E+00
 -1      3033 0.00000E+00 6.63019E-01 3.23840E-02
 -1      3034 5.00000E-02 6.47173E-01 0.00000E+00
 -1      3035 2.16295E-02 6.43516E-01 2.11531E-02
 -1      3036 0.00000E+00 7.93555E-01 0.00000E+00
 -1      3037 0.00000E+00 7.38770E-01 3.11591E-02
 -1      3038 5.00000E-02 7.63738E-01 0.00000E+00
 -1      3039 5.00000E-02 7.25430E-01 0.00000E+00
 -1      3040 0.00000E+00 7.73576E-01 2.93074E-02
 -1      3041 5.00000E-02 7.50303E-01 3.13352E-02
 -1      3042 2.58596E-02 7.83922E-01 0.00000E+00
 -1      3043 2.61223E-02 8.52716E-01 0.00000E+00
 -1      3044 0.00000E+00 8.13193E-01 2.93074E-02
 -1      3045 2.58596E-02 8.23539E-01 0.00000E+00
 -1      3046 2.11945E-02 8.43328E-01 2.03230E-02
 -1      3047 0.00000E+00 8.50969E-01 2.35589E-02
 -1      3048 0.00000E+00 8.57381E-01 0.00000E+00
 -1      3049 1.64580E-02 8.92375E-01 2.47562E-02
 -1      3050 2.61223E-02 8.76925E-01 0.00000E+00
 -1      3051 0.00000E+00 8.99059E-01 2.16767E-02
 -1      3052 1.71645E-02 8.98481E-01 0.00000E+00
 -1      3053 0.00000E+00 9.05132E-01 0.00000E+00
 -1      3054 2.11945E-02 8.67537E-01 2.03230E-02
 -1      3055 0.00000E+00 8.75178E-01 2.35589E-02
 -1      3056 0.00000E+00 9.43868E-01 2.01632E-02
 -1      3057 1.69446E-02 9.44324E-01 0.00000E+00
 -1      3058 0.00000E+00 9.48960E-01 0.00000E+00
 -1      3059 1.78104E-02 9.33522E-01 1.43599E-02
 -1      3060 0.00000E+00 9.22601E-01 2.16767E-02
 -1      3061 1.71645E-02 9.22023E-01 0.00000E+00
 -1      3062 1.69446E-02 9.64611E-01 0.00000E+00
 -1      3063 1.78104E-02 9.53808E-01 1.43599E-02
 -1      3064 0.00000E+00 9.64155E-01 2.01632E-02
 -1      3065 1.23825E-02 9.70387E-01 1.81922E-02
 -1      3066 1.00000E-01 1.20884E-01 0.00000E+00
 -1      3067 9.39304E-02 1.18428E-01 0.00000E+00
 -1      3068 1.00000E-01 1.12673E-01 7.57499E-03
 -1      3069 9.04383E-02 1.12505E-01 0.00000E+00
 -1      3070 1.00000E-01 1.20165E-01 7.57499E-03
 -1      3071 1.00000E-01 1.37967E-01 0.00000E+00
 -1      3072 1.00000E-01 1.32675E-01 8.89944E-03
 -1      3073 9.00987E-02 1.32679E-01 0.00000E+00
 -1      3074 9.27213E-02 1.28304E-01 8.18446E-03
 -1      3075 9.39304E-02 1.25920E-01 0.00000E+00
 -1      3076 1.00000E-01 1.58818E-01 0.00000E+00
 -1      3077 9.24785E-02 1.47472E-01 1.11599E-02
 -1      3078 1.00000E-01 1.52040E-01 9.13609E-03
 -1      3079 8.99009E-02 1.53901E-01 0.00000E+00
 -1      3080 1.00000E-01 1.42266E-01 8.89944E-03
 -1      3081 9.00987E-02 1.42271E-01 0.00000E+00
 -1      3082 8.99009E-02 1.65160E-01 0.00000E+00
 -1      3083 1.00000E-01 1.79045E-01 0.00000E+00
 -1      3084 1.00000E-01 1.63299E-01 9.13609E-03
 -1      3085 9.27229E-02 1.68665E-01 9.25157E-03
 -1      3086 1.00000E-01 1.73824E-01 1.04155E-02
 -1      3087 9.15965E-02 1.74653E-01 0.00000E+00
 -1      3088 1.00000E-01 2.01293E-01 0.00000E+00
 -1      3089 1.00000E-01 1.97404E-01 1.35798E-02
 -1      3090 1.00000E-01 1.82793E-01 1.04155E-02
 -1      3091 8.66583E-02 1.93974E-01 0.00000E+00
 -1      3092 8.89986E-02 1.89479E-01 1.04905E-02
 -1      3093 9.15965E-02 1.83622E-01 0.00000E+00
 -1      3094 1.00000E-01 2.25525E-01 1.58411E-02
 -1      3095 1.00000E-01 2.10683E-01 1.35798E-02
 -1      3096 8.66583E-02 2.07253E-01 0.00000E+00
 -1      3097 7.94846E-02 2.19337E-01 0.00000E+00
 -1      3098 8.82496E-02 2.18339E-01 1.21193E-02
 -1      3099 1.00000E-01 2.34836E-01 0.00000E+00
 -1      3100 1.00000E-01 2.45790E-01 1.58411E-02
 -1      3101 8.19055E-02 2.52651E-01 1.94271E-02
 -1      3102 1.00000E-01 2.62081E-01 1.77101E-02
 -1      3103 7.42998E-02 2.63669E-01 0.00000E+00
 -1      3104 8.20448E-02 2.71587E-01 1.57189E-02
 -1      3105 1.00000E-01 2.73961E-01 0.00000E+00
 -1      3106 7.94846E-02 2.39602E-01 0.00000E+00
 -1      3107 8.82496E-02 2.38604E-01 1.21193E-02
 -1      3108 8.42163E-02 3.05255E-01 1.32707E-02
 -1      3109 1.00000E-01 3.11764E-01 0.00000E+00
 -1      3110 1.00000E-01 2.99966E-01 1.83308E-02
 -1      3111 1.00000E-01 2.80940E-01 1.77101E-02
 -1      3112 7.52235E-02 3.03558E-01 0.00000E+00
 -1      3113 7.42998E-02 2.82529E-01 0.00000E+00
 -1      3114 8.20448E-02 2.90446E-01 1.57189E-02
 -1      3115 7.52235E-02 3.22502E-01 0.00000E+00
 -1      3116 1.00000E-01 3.18910E-01 1.83308E-02
 -1      3117 1.00000E-01 3.49724E-01 0.00000E+00
 -1      3118 1.00000E-01 3.37650E-01 2.05884E-02
 -1      3119 8.42163E-02 3.24199E-01 1.32707E-02
 -1      3120 7.64084E-02 3.42113E-01 0.00000E+00
 -1      3121 1.00000E-01 3.91744E-01 0.00000E+00
 -1      3122 7.66987E-02 3.84393E-01 0.00000E+00
 -1      3123 1.00000E-01 3.76318E-01 2.23254E-02
 -1      3124 1.00000E-01 3.56665E-01 2.05884E-02
 -1      3125 7.64084E-02 3.61129E-01 0.00000E+00
 -1      3126 7.66987E-02 4.07398E-01 0.00000E+00
 -1      3127 1.00000E-01 3.99323E-01 2.23254E-02
 -1      3128 1.00000E-01 4.26275E-01 2.43876E-02
 -1      3129 1.00000E-01 4.42575E-01 0.00000E+00
 -1      3130 7.80041E-02 4.40268E-01 0.00000E+00
 -1      3131 1.00000E-01 4.54100E-01 2.43876E-02
 -1      3132 1.00000E-01 5.04062E-01 0.00000E+00
 -1      3133 1.00000E-01 4.85275E-01 2.96934E-02
 -1      3134 7.80041E-02 4.68093E-01 0.00000E+00
 -1      3135 5.00000E-02 5.48833E-01 2.78416E-02
 -1      3136 1.00000E-01 5.57442E-01 3.66046E-02
 -1      3137 1.00000E-01 5.76783E-01 0.00000E+00
 -1      3138 7.16295E-02 5.73127E-01 2.11531E-02
 -1      3139 1.00000E-01 5.18937E-01 2.96934E-02
 -1      3140 7.80041E-02 5.01755E-01 0.00000E+00
 -1      3141 1.00000E-01 6.56382E-01 0.00000E+00
 -1      3142 1.00000E-01 5.96501E-01 3.66046E-02
 -1      3143 1.00000E-01 6.38287E-01 3.60797E-02
 -1      3144 7.16295E-02 6.12186E-01 2.11531E-02
 -1      3145 1.00000E-01 6.78826E-01 3.60797E-02
 -1      3146 5.00000E-02 7.10261E-01 3.11591E-02
 -1      3147 1.00000E-01 7.21794E-01 3.13352E-02
 -1      3148 1.00000E-01 7.35229E-01 0.00000E+00
 -1      3149 1.00000E-01 8.05081E-01 0.00000E+00
 -1      3150 1.00000E-01 7.91168E-01 2.81948E-02
 -1      3151 7.58596E-02 7.93722E-01 0.00000E+00
 -1      3152 1.00000E-01 7.60102E-01 3.13352E-02
 -1      3153 1.00000E-01 8.62138E-01 0.00000E+00
 -1      3154 7.61223E-02 8.54442E-01 0.00000E+00
 -1      3155 7.58596E-02 8.25265E-01 0.00000E+00
 -1      3156 1.00000E-01 8.53159E-01 2.19893E-02
 -1      3157 1.00000E-01 8.22711E-01 2.81948E-02
 -1      3158 7.11945E-02 8.45054E-01 2.03230E-02
 -1      3159 1.00000E-01 8.78673E-01 2.19893E-02
 -1      3160 1.00000E-01 9.08397E-01 0.00000E+00
 -1      3161 7.61223E-02 8.79956E-01 0.00000E+00
 -1      3162 8.22066E-02 8.92827E-01 1.91211E-02
 -1      3163 1.00000E-01 8.97294E-01 1.76159E-02
 -1      3164 8.59819E-02 9.00228E-01 0.00000E+00
 -1      3165 1.00000E-01 9.47701E-01 0.00000E+00
 -1      3166 1.00000E-01 9.18039E-01 1.76159E-02
 -1      3167 8.32239E-02 9.38491E-01 0.00000E+00
 -1      3168 8.59819E-02 9.20973E-01 0.00000E+00
 -1      3169 1.00000E-01 9.35636E-01 1.42894E-02
 -1      3170 1.00000E-01 9.54194E-01 1.42894E-02
 -1      3171 1.00000E-01 9.67338E-01 2.27963E-02
 -1      3172 8.32239E-02 9.57049E-01 0.00000E+00
 -1      3173 8.86647E-02 9.68040E-01 1.32449E-02
 -1      3174 2.47987E-02 8.57784E-01 4.69883E-01
 -1      3175 0.00000E+00 8.29767E-01 4.55413E-01
 -1      3176 0.00000E+00 8.08631E-01 4.66861E-01
 -1      3177 2.51594E-02 8.25875E-01 4.76816E-01
 -1      3178 0.00000E+00 8.09879E-01 4.43931E-01
 -1      3179 2.51594E-02 8.05986E-01 4.65334E-01
 -1      3180 2.92525E-02 7.79321E-01 4.49939E-01
 -1      3181 0.00000E+00 7.63127E-01 4.40590E-01
 -1      3182 0.00000E+00 7.90229E-01 4.29109E-01
 -1      3183 0.00000E+00 7.37298E-01 3.94293E-01
 -1      3184 5.00000E-02 7.17615E-01 4.14313E-01
 -1      3185 0.00000E+00 7.03080E-01 4.05922E-01
 -1      3186 2.92525E-02 7.53705E-01 4.35150E-01
 -1      3187 0.00000E+00 7.64614E-01 4.14320E-01
 -1      3188 0.00000E+00 7.02867E-01 3.74414E-01
 -1      3189 5.00000E-02 6.83183E-01 3.94434E-01
 -1      3190 5.00000E-02 6.83507E-01 3.55774E-01
 -1      3191 5.00000E-02 6.48509E-01 3.74415E-01
 -1      3192 0.00000E+00 6.32694E-01 3.65285E-01
 -1      3193 0.00000E+00 6.66856E-01 3.47375E-01
 -1      3194 5.00000E-02 6.11481E-01 3.10099E-01
 -1      3195 5.00000E-02 6.12554E-01 3.53657E-01
 -1      3196 0.00000E+00 6.30902E-01 3.26617E-01
 -1      3197 0.00000E+00 5.93093E-01 3.03596E-01
 -1      3198 5.00000E-02 5.74342E-01 3.31596E-01
 -1      3199 0.00000E+00 5.58495E-01 3.22446E-01
 -1      3200 0.00000E+00 4.83986E-01 2.79429E-01
 -1      3201 0.00000E+00 5.16109E-01 2.65070E-01
 -1      3202 5.00000E-02 5.34189E-01 2.64079E-01
 -1      3203 5.00000E-02 4.98470E-01 2.87791E-01
 -1      3204 0.00000E+00 5.54849E-01 2.81516E-01
 -1      3205 5.00000E-02 5.36098E-01 3.09516E-01
 -1      3206 0.00000E+00 4.15560E-01 2.39923E-01
 -1      3207 5.00000E-02 4.29127E-01 2.47756E-01
 -1      3208 0.00000E+00 4.45238E-01 2.24451E-01
 -1      3209 5.00000E-02 4.58934E-01 2.25937E-01
 -1      3210 0.00000E+00 4.79843E-01 2.44132E-01
 -1      3211 5.00000E-02 4.62204E-01 2.66853E-01
 -1      3212 0.00000E+00 3.55869E-01 2.05461E-01
 -1      3213 0.00000E+00 3.80766E-01 1.88693E-01
 -1      3214 0.00000E+00 4.13078E-01 2.05884E-01
 -1      3215 5.00000E-02 3.96967E-01 2.29189E-01
 -1      3216 5.00000E-02 3.68711E-01 2.12875E-01
 -1      3217 5.00000E-02 3.95237E-01 1.93425E-01
 -1      3218 0.00000E+00 3.04432E-01 1.75764E-01
 -1      3219 0.00000E+00 3.26361E-01 1.61147E-01
 -1      3220 0.00000E+00 3.53235E-01 1.72798E-01
 -1      3221 5.00000E-02 3.41180E-01 1.96980E-01
 -1      3222 2.83469E-02 3.11449E-01 1.79815E-01
 -1      3223 0.00000E+00 2.62149E-01 1.51352E-01
 -1      3224 0.00000E+00 2.84297E-01 1.40519E-01
 -1      3225 2.61735E-02 2.67533E-01 1.54461E-01
 -1      3226 0.00000E+00 3.02455E-01 1.47345E-01
 -1      3227 2.83469E-02 2.87543E-01 1.66014E-01
 -1      3228 0.00000E+00 2.26044E-01 1.30507E-01
 -1      3229 2.18267E-02 2.31229E-01 1.33501E-01
 -1      3230 0.00000E+00 2.48954E-01 1.23042E-01
 -1      3231 0.00000E+00 2.65920E-01 1.29909E-01
 -1      3232 2.61735E-02 2.49156E-01 1.43851E-01
 -1      3233 0.00000E+00 1.93678E-01 1.11821E-01
 -1      3234 0.00000E+00 2.31226E-01 1.12806E-01
 -1      3235 2.18267E-02 2.13501E-01 1.23266E-01
 -1      3236 1.69553E-02 1.99802E-01 1.15356E-01
 -1      3237 0.00000E+00 2.25898E-01 9.60466E-02
 -1      3238 0.00000E+00 2.08750E-01 9.44028E-02
 -1      3239 1.35213E-02 2.13568E-01 1.03802E-01
 -1      3240 1.69553E-02 1.85163E-01 1.06905E-01
 -1      3241 1.06135E-02 1.82225E-01 8.56623E-02
 -1      3242 0.00000E+00 1.94111E-01 8.59515E-02
 -1      3243 1.35213E-02 1.98930E-01 9.53511E-02
 -1      3244 1.52688E-02 1.71206E-01 9.88468E-02
 -1      3245 0.00000E+00 1.64209E-01 9.48072E-02
 -1      3246 0.00000E+00 1.76690E-01 8.64680E-02
 -1      3247 0.00000E+00 1.40523E-01 8.11321E-02
 -1      3248 1.18009E-02 1.43720E-01 8.29782E-02
 -1      3249 8.93821E-03 1.53369E-01 7.61119E-02
 -1      3250 0.00000E+00 1.47330E-01 7.40066E-02
 -1      3251 1.52688E-02 1.56375E-01 9.02843E-02
 -1      3252 0.00000E+00 1.61859E-01 7.79055E-02
 -1      3253 0.00000E+00 1.22630E-01 7.08020E-02
 -1      3254 8.89195E-03 1.27122E-01 7.33950E-02
 -1      3255 1.18009E-02 1.34865E-01 7.78655E-02
 -1      3256 0.00000E+00 1.38475E-01 6.88939E-02
 -1      3257 0.00000E+00 1.30351E-01 6.73731E-02
 -1      3258 6.72408E-03 1.33371E-01 6.60041E-02
 -1      3259 0.00000E+00 1.05724E-01 6.10412E-02
 -1      3260 0.00000E+00 1.15825E-01 5.70991E-02
 -1      3261 6.12583E-03 1.10671E-01 6.38973E-02
 -1      3262 0.00000E+00 1.21314E-01 6.21557E-02
 -1      3263 8.89195E-03 1.18085E-01 6.81776E-02
 -1      3264 0.00000E+00 1.07955E-01 5.25556E-02
 -1      3265 6.04203E-03 9.22273E-02 5.32489E-02
 -1      3266 0.00000E+00 9.22273E-02 5.32489E-02
 -1      3267 0.00000E+00 9.49067E-02 4.78546E-02
 -1      3268 0.00000E+00 1.01447E-01 4.64819E-02
 -1      3269 6.12583E-03 1.02801E-01 5.93538E-02
 -1      3270 8.99890E-03 9.76955E-02 5.64059E-02
 -1      3271 6.04203E-03 8.66000E-02 5.00000E-02
 -1      3272 0.00000E+00 8.94409E-02 4.46859E-02
 -1      3273 6.03933E-03 8.94395E-02 4.46882E-02
 -1      3274 1.39642E-02 9.03211E-02 4.28259E-02
 -1      3275 1.50409E-02 9.20682E-02 5.31570E-02
 -1      3276 1.84764E-02 8.66000E-02 5.00000E-02
 -1      3277 3.18875E-02 8.66000E-02 5.00000E-02
 -1      3278 2.90102E-02 9.17201E-02 5.29561E-02
 -1      3279 2.77768E-02 8.92568E-02 4.50300E-02
 -1      3280 2.03461E-02 9.03198E-02 4.28287E-02
 -1      3281 2.14333E-02 9.20682E-02 5.31570E-02
 -1      3282 4.66178E-02 8.66000E-02 5.00000E-02
 -1      3283 4.34648E-02 9.21673E-02 5.32143E-02
 -1      3284 3.60289E-02 9.17201E-02 5.29561E-02
 -1      3285 3.47918E-02 8.92565E-02 4.50305E-02
 -1      3286 4.13583E-02 8.99960E-02 4.35435E-02
 -1      3287 4.90611E-02 8.99948E-02 4.35460E-02
 -1      3288 5.11764E-02 9.21673E-02 5.32143E-02
 -1      3289 6.27682E-02 8.66000E-02 5.00000E-02
 -1      3290 5.70248E-02 9.04058E-02 4.26390E-02
 -1      3291 5.88603E-02 9.21323E-02 5.31940E-02
 -1      3292 5.48361E-02 9.73646E-02 4.73391E-02
 -1      3293 7.34168E-02 9.04458E-02 4.25507E-02
 -1      3294 7.92102E-02 8.66000E-02 5.00000E-02
 -1      3295 7.59236E-02 9.20081E-02 5.31223E-02
 -1      3296 6.54501E-02 9.04041E-02 4.26427E-02
 -1      3297 6.72991E-02 9.21323E-02 5.31940E-02
 -1      3298 9.36068E-02 8.66000E-02 5.00000E-02
 -1      3299 8.14070E-02 9.04438E-02 4.25550E-02
 -1      3300 8.39269E-02 9.20081E-02 5.31223E-02
 -1      3301 9.36034E-02 8.95340E-02 4.45118E-02
 -1      3302 8.80394E-02 9.07208E-02 4.19431E-02
 -1      3303 9.36068E-02 9.27218E-02 5.35344E-02
 -1      3304 1.00000E-01 8.95323E-02 4.45148E-02
 -1      3305 1.00000E-01 9.27218E-02 5.35344E-02
 -1      3306 7.47987E-02 8.60076E-01 4.71206E-01
 -1      3307 1.00000E-01 8.47055E-01 4.59190E-01
 -1      3308 1.00000E-01 8.13369E-01 4.69596E-01
 -1      3309 1.00000E-01 8.28618E-01 4.59422E-01
 -1      3310 7.51594E-02 8.28167E-01 4.78140E-01
 -1      3311 1.00000E-01 7.92650E-01 4.33024E-01
 -1      3312 1.00000E-01 7.75101E-01 4.47503E-01
 -1      3313 7.92525E-02 7.81767E-01 4.51351E-01
 -1      3314 1.00000E-01 8.08883E-01 4.48028E-01
 -1      3315 7.51594E-02 8.08432E-01 4.66746E-01
 -1      3316 1.00000E-01 7.27143E-01 4.19814E-01
 -1      3317 1.00000E-01 7.58322E-01 4.06973E-01
 -1      3318 1.00000E-01 7.74117E-01 4.22324E-01
 -1      3319 7.92525E-02 7.63234E-01 4.40651E-01
 -1      3320 1.00000E-01 6.63044E-01 3.82807E-01
 -1      3321 1.00000E-01 6.98042E-01 3.64165E-01
 -1      3322 7.92525E-02 7.33809E-01 4.23663E-01
 -1      3323 1.00000E-01 7.28896E-01 3.89985E-01
 -1      3324 5.00000E-02 7.17402E-01 3.82806E-01
 -1      3325 1.00000E-01 6.27296E-01 3.19230E-01
 -1      3326 1.00000E-01 5.90157E-01 3.40726E-01
 -1      3327 1.00000E-01 6.63368E-01 3.44146E-01
 -1      3328 5.00000E-02 6.46717E-01 3.35748E-01
 -1      3329 1.00000E-01 5.14317E-01 2.96940E-01
 -1      3330 1.00000E-01 5.50036E-01 2.73229E-01
 -1      3331 5.00000E-02 5.70696E-01 2.90665E-01
 -1      3332 1.00000E-01 5.89084E-01 2.97168E-01