    1C
    1UModel: segment                                                    
    1UUSER                                                              
    1UDATE              22.april.2025                                   
    1UTIME              15:46:11                                        
    1UHOST                                                              
    1UPGM               CalculiX                                        
    1UVERSION           Version DEVELOPMENT                             
    1UCOMPILETIME       Mon Apr 21 14:04:07 CEST 2025                    
    1UDIR                                                               
    1UDBN                                                               
    1UMAT    1EL                                                        
    2C                          2756                                     1
 -1        29 0.00000E+00 1.00000E-01 0.00000E+00
 -1        30 1.20840E-02 1.00000E-01 0.00000E+00
 -1        31 2.48687E-02 1.00000E-01 0.00000E+00
 -1        32 3.89061E-02 1.00000E-01 0.00000E+00
 -1        33 5.43294E-02 1.00000E-01 0.00000E+00
 -1        34 7.12070E-02 1.00000E-01 0.00000E+00
 -1        35 8.72135E-02 1.00000E-01 0.00000E+00
 -1        36 1.00000E-01 1.00000E-01 0.00000E+00
 -1        93 0.00000E+00 8.66000E-02 5.00000E-02
 -1        94 1.20841E-02 8.66000E-02 5.00000E-02
 -1        95 2.48688E-02 8.66000E-02 5.00000E-02
 -1        96 3.89062E-02 8.66000E-02 5.00000E-02
 -1        97 5.43295E-02 8.66000E-02 5.00000E-02
 -1        98 7.12070E-02 8.66000E-02 5.00000E-02
 -1        99 8.72135E-02 8.66000E-02 5.00000E-02
 -1       100 1.00000E-01 8.66000E-02 5.00000E-02
 -1       118 0.00000E+00 9.19589E-02 3.92114E-02
 -1       119 0.00000E+00 9.67622E-02 2.51496E-02
 -1       120 0.00000E+00 9.93366E-02 1.10972E-02
 -1       121 1.00000E-01 9.21188E-02 3.88584E-02
 -1       122 1.00000E-01 9.65155E-02 2.61324E-02
 -1       123 1.00000E-01 9.91684E-02 1.28039E-02
 -1       194 1.59422E-02 9.85997E-02 1.63479E-02
 -1       195 4.65718E-02 9.82303E-02 1.85850E-02
 -1       196 8.41271E-02 9.83495E-02 1.78630E-02
 -1       197 1.58372E-02 9.34726E-02 3.53822E-02
 -1       198 3.06814E-02 9.16377E-02 3.99201E-02
 -1       199 4.38035E-02 9.29176E-02 3.68566E-02
 -1       200 5.97097E-02 9.36177E-02 3.49966E-02
 -1       201 7.56176E-02 9.36857E-02 3.48161E-02
 -1       202 8.88703E-02 9.41546E-02 3.35705E-02
 -1       203 3.13352E-02 9.91765E-02 1.27224E-02
 -1       204 6.59323E-02 9.83555E-02 1.78269E-02
 -1       205 3.04047E-02 9.62837E-02 2.68961E-02
 -1       260 0.00000E+00 5.00000E-01 1.00000E-01
 -1       488 6.04201E-03 1.00000E-01 0.00000E+00
 -1       489 1.84764E-02 1.00000E-01 0.00000E+00
 -1       490 3.18874E-02 1.00000E-01 0.00000E+00
 -1       491 4.66178E-02 1.00000E-01 0.00000E+00
 -1       492 6.27682E-02 1.00000E-01 0.00000E+00
 -1       493 7.92103E-02 1.00000E-01 0.00000E+00
 -1       494 9.36068E-02 1.00000E-01 0.00000E+00
 -1       554 6.04203E-03 8.66000E-02 5.00000E-02
 -1       555 1.84764E-02 8.66000E-02 5.00000E-02
 -1       556 3.18875E-02 8.66000E-02 5.00000E-02
 -1       557 4.66178E-02 8.66000E-02 5.00000E-02
 -1       558 6.27682E-02 8.66000E-02 5.00000E-02
 -1       559 7.92102E-02 8.66000E-02 5.00000E-02
 -1       560 9.36068E-02 8.66000E-02 5.00000E-02
 -1       579 0.00000E+00 8.94411E-02 4.46854E-02
 -1       580 0.00000E+00 9.46416E-02 3.22766E-02
 -1       581 0.00000E+00 9.82990E-02 1.81688E-02
 -1       582 0.00000E+00 9.98178E-02 5.55843E-03
 -1       583 1.00000E-01 8.95324E-02 4.45145E-02
 -1       584 1.00000E-01 9.45313E-02 3.25696E-02
 -1       585 1.00000E-01 9.80763E-02 1.95148E-02
 -1       586 1.00000E-01 9.97897E-02 6.41542E-03
 -1       919 6.04201E-03 9.98180E-02 5.55353E-03
 -1       920 2.04054E-02 9.96236E-02 8.18458E-03
 -1       921 1.40131E-02 9.96236E-02 8.18458E-03
 -1       922 5.04506E-02 9.95132E-02 9.30556E-03
 -1       923 4.27390E-02 9.95132E-02 9.30556E-03
 -1       924 8.56703E-02 9.95488E-02 8.94378E-03
 -1       925 7.76670E-02 9.95488E-02 8.94378E-03
 -1       926 9.36068E-02 9.97899E-02 6.40868E-03
 -1       927 6.04203E-03 8.94383E-02 4.46906E-02
 -1       928 1.39606E-02 9.03146E-02 4.28399E-02
 -1       929 2.03530E-02 9.03146E-02 4.28399E-02
 -1       930 2.77751E-02 8.92553E-02 4.50330E-02
 -1       931 3.47938E-02 8.92553E-02 4.50330E-02
 -1       932 2.32593E-02 9.26106E-02 3.76721E-02
 -1       933 4.13549E-02 8.99915E-02 4.35527E-02
 -1       934 4.90665E-02 8.99915E-02 4.35527E-02
 -1       935 3.72425E-02 9.23226E-02 3.84087E-02
 -1       936 5.70196E-02 9.03990E-02 4.26534E-02
 -1       937 6.54584E-02 9.03990E-02 4.26534E-02
 -1       938 5.17566E-02 9.32677E-02 3.59266E-02
 -1       939 7.34123E-02 9.04386E-02 4.25662E-02
 -1       940 8.14155E-02 9.04386E-02 4.25662E-02
 -1       941 6.76637E-02 9.36517E-02 3.49064E-02
 -1       942 9.36068E-02 8.95354E-02 4.45089E-02
 -1       943 8.80419E-02 9.07320E-02 4.19188E-02
 -1       944 9.44351E-02 9.31565E-02 3.62219E-02
 -1       945 9.44351E-02 9.53827E-02 2.98659E-02
 -1       946 7.97108E-03 9.90322E-02 1.37289E-02
 -1       947 9.20635E-02 9.87671E-02 1.53343E-02
 -1       948 7.91861E-03 9.27466E-02 3.73108E-02
 -1       949 3.51207E-02 9.97913E-02 6.36786E-03
 -1       950 2.81020E-02 9.97913E-02 6.36786E-03
 -1       951 6.85696E-02 9.95506E-02 8.92566E-03
 -1       952 6.01309E-02 9.95506E-02 8.92566E-03
 -1       953 7.50297E-02 9.83525E-02 1.78450E-02
 -1       954 9.20635E-02 9.74949E-02 2.20080E-02
 -1       955 3.89535E-02 9.87142E-02 1.56548E-02
 -1       956 2.36387E-02 9.88989E-02 1.45362E-02
 -1       957 8.64987E-02 9.65995E-02 2.58476E-02
 -1       958 7.91861E-03 9.52518E-02 3.02973E-02
 -1       959 7.97108E-03 9.77830E-02 2.07726E-02
 -1       960 5.62521E-02 9.82929E-02 1.82060E-02
 -1       961 1.58897E-02 9.65698E-02 2.59532E-02
 -1       962 2.31735E-02 9.75796E-02 2.16448E-02
 -1       963 2.31210E-02 9.49843E-02 3.11791E-02
 -1       964 3.05431E-02 9.41785E-02 3.35068E-02
 -1       965 3.08700E-02 9.80014E-02 1.98360E-02
 -1       966 7.07750E-02 9.64132E-02 2.64693E-02
 -1       967 7.98723E-02 9.64318E-02 2.64080E-02
 -1       968 3.71041E-02 9.47551E-02 3.19345E-02
 -1       969 5.31408E-02 9.62970E-02 2.68524E-02
 -1       970 4.51877E-02 9.59864E-02 2.78761E-02
 -1       971 3.84883E-02 9.73216E-02 2.27512E-02
 -1       972 8.22439E-02 9.39201E-02 3.41933E-02
 -1       973 6.28210E-02 9.64095E-02 2.64816E-02
 -1      2757 1.54874E-02 1.00000E+00 0.00000E+00
 -1      2758 0.00000E+00 9.99719E-01 1.71847E-02
 -1      2759 0.00000E+00 9.84623E-01 0.00000E+00
 -1      2760 1.54878E-02 9.99719E-01 1.71850E-02
 -1      2761 1.54874E-02 9.84623E-01 0.00000E+00
 -1      2762 4.78549E-02 1.00000E+00 0.00000E+00
 -1      2763 3.05862E-02 9.99637E-01 2.22246E-02
 -1      2764 4.72433E-02 9.99693E-01 1.87628E-02
 -1      2765 4.02748E-02 9.85147E-01 1.21292E-02
 -1      2766 3.24320E-02 9.79987E-01 0.00000E+00
 -1      2767 2.78700E-02 9.85763E-01 1.81922E-02
 -1      2768 8.23675E-02 1.00000E+00 0.00000E+00
 -1      2769 6.41245E-02 9.99693E-01 1.87618E-02
 -1      2770 8.23675E-02 9.99731E-01 1.64303E-02
 -1      2771 4.93121E-02 9.79987E-01 0.00000E+00
 -1      2772 8.23675E-02 9.83130E-01 0.00000E+00
 -1      2773 5.71549E-02 9.85147E-01 1.21292E-02
 -1      2774 6.55914E-02 9.73919E-01 0.00000E+00
 -1      2775 7.10322E-02 9.84910E-01 1.32449E-02
 -1      2776 1.00000E-01 9.83130E-01 0.00000E+00
 -1      2777 1.00000E-01 9.99731E-01 1.64303E-02
 -1      2778 1.50987E-02 9.99137E-01 3.94040E-02
 -1      2779 0.00000E+00 9.98399E-01 5.44170E-02
 -1      2780 0.00000E+00 9.79223E-01 3.73473E-02
 -1      2781 0.00000E+00 9.84315E-01 1.71842E-02
 -1      2782 1.23825E-02 9.85455E-01 3.53764E-02
 -1      2783 2.87665E-02 9.97051E-01 7.52643E-02
 -1      2784 0.00000E+00 9.74527E-01 7.73127E-02
 -1      2785 0.00000E+00 9.78090E-01 5.73876E-02
 -1      2786 2.59011E-02 9.95362E-01 9.58650E-02
 -1      2787 0.00000E+00 9.95306E-01 9.65474E-02
 -1      2788 1.51004E-02 9.98152E-01 5.94547E-02
 -1      2789 1.32348E-02 9.82059E-01 7.66713E-02
 -1      2790 1.23825E-02 9.84322E-01 5.54166E-02
 -1      2791 2.34100E-02 9.89557E-01 1.43258E-01
 -1      2792 0.00000E+00 9.89658E-01 1.42577E-01
 -1      2793 1.73057E-02 9.69704E-01 1.29843E-01
 -1      2794 1.75713E-02 9.68483E-01 1.11820E-01
 -1      2795 0.00000E+00 9.72378E-01 9.93784E-02
 -1      2796 0.00000E+00 9.68324E-01 1.23207E-01
 -1      2797 1.32348E-02 9.79911E-01 9.87371E-02
 -1      2798 2.59039E-02 9.92899E-01 1.17897E-01
 -1      2799 0.00000E+00 9.64908E-01 1.47167E-01
 -1      2800 1.73057E-02 9.66288E-01 1.53803E-01
 -1      2801 0.00000E+00 9.80536E-01 1.96250E-01
 -1      2802 0.00000E+00 9.57796E-01 1.76715E-01
 -1      2803 2.34061E-02 9.85865E-01 1.67182E-01
 -1      2804 0.00000E+00 9.65843E-01 2.59116E-01
 -1      2805 0.00000E+00 9.44751E-01 2.36887E-01
 -1      2806 5.00000E-02 9.76036E-01 2.17088E-01
 -1      2807 5.00022E-02 9.69039E-01 2.46397E-01
 -1      2808 2.42995E-02 9.49446E-01 2.07525E-01
 -1      2809 0.00000E+00 9.51877E-01 2.06371E-01
 -1      2810 2.34094E-02 9.80389E-01 1.96930E-01
 -1      2811 4.99988E-02 9.50405E-01 3.10633E-01
 -1      2812 5.00000E-02 9.28394E-01 2.90689E-01
 -1      2813 5.00002E-02 9.60017E-01 2.79517E-01
 -1      2814 0.00000E+00 9.35855E-01 2.70032E-01
 -1      2815 2.37072E-02 9.45240E-01 3.26171E-01
 -1      2816 0.00000E+00 9.47174E-01 3.20688E-01
 -1      2817 0.00000E+00 9.26463E-01 3.01453E-01
 -1      2818 0.00000E+00 9.27783E-01 3.72813E-01
 -1      2819 0.00000E+00 9.11161E-01 3.57504E-01
 -1      2820 2.37009E-02 9.35053E-01 3.54416E-01
 -1      2821 0.00000E+00 9.16826E-01 3.29883E-01
 -1      2822 2.46273E-02 9.14228E-01 4.04954E-01
 -1      2823 2.37031E-02 9.25643E-01 3.78228E-01
 -1      2824 0.00000E+00 9.01579E-01 3.81240E-01
 -1      2825 0.00000E+00 8.94306E-01 4.04385E-01
 -1      2826 1.29205E-02 9.02156E-01 3.93689E-01
 -1      2827 0.00000E+00 9.09649E-01 4.15284E-01
 -1      2828 0.00000E+00 8.92070E-01 4.51646E-01
 -1      2829 2.46273E-02 9.05680E-01 4.23676E-01
 -1      2830 2.48002E-02 8.94086E-01 4.47722E-01
 -1      2831 2.16544E-02 8.78065E-01 4.23222E-01
 -1      2832 0.00000E+00 8.85770E-01 4.23112E-01
 -1      2833 1.29205E-02 8.93620E-01 4.12416E-01
 -1      2834 0.00000E+00 8.74560E-01 4.84651E-01
 -1      2835 1.54880E-02 8.74560E-01 4.84651E-01
 -1      2836 0.00000E+00 8.55770E-01 4.73804E-01
 -1      2837 0.00000E+00 8.57018E-01 4.50874E-01
 -1      2838 0.00000E+00 8.76856E-01 4.40799E-01
 -1      2839 2.47987E-02 8.85035E-01 4.65343E-01
 -1      2840 2.16544E-02 8.69151E-01 4.40909E-01
 -1      2841 1.54874E-02 8.66030E-01 5.00000E-01
 -1      2842 0.00000E+00 8.47275E-01 4.89172E-01
 -1      2843 4.78549E-02 8.66030E-01 5.00000E-01
 -1      2844 4.06468E-02 8.44630E-01 4.87645E-01
 -1      2845 4.02867E-02 8.76700E-01 4.80799E-01
 -1      2846 1.54874E-02 8.47275E-01 4.89172E-01
 -1      2847 5.75269E-02 8.44630E-01 4.87645E-01
 -1      2848 5.71657E-02 8.76700E-01 4.80799E-01
 -1      2849 8.23675E-02 8.74072E-01 4.85528E-01
 -1      2850 8.23675E-02 8.66030E-01 5.00000E-01
 -1      2851 8.23675E-02 8.49567E-01 4.90495E-01
 -1      2852 1.00000E-01 8.74072E-01 4.85528E-01
 -1      2853 1.00000E-01 8.49567E-01 4.90495E-01
 -1      2854 8.17570E-02 9.99344E-01 3.51905E-02
 -1      2855 1.00000E-01 9.82859E-01 1.64303E-02
 -1      2856 8.86647E-02 9.84639E-01 2.96752E-02
 -1      2857 1.00000E-01 9.98579E-01 5.07539E-02
 -1      2858 1.00000E-01 9.83937E-01 3.92266E-02
 -1      2859 8.96057E-02 9.84247E-01 4.41023E-02
 -1      2860 1.00000E-01 9.95967E-01 8.84853E-02
 -1      2861 8.17562E-02 9.98465E-01 5.30848E-02
 -1      2862 7.87665E-02 9.97289E-01 7.23607E-02
 -1      2863 8.85086E-02 9.80332E-01 7.55993E-02
 -1      2864 1.00000E-01 9.80417E-01 7.44329E-02
 -1      2865 1.00000E-01 9.83005E-01 5.71172E-02
 -1      2866 8.96057E-02 9.83315E-01 6.19929E-02
 -1      2867 7.87647E-02 9.95662E-01 9.22069E-02
 -1      2868 1.00000E-01 9.78622E-01 9.42611E-02
 -1      2869 7.59039E-02 9.93490E-01 1.12756E-01
 -1      2870 1.00000E-01 9.91336E-01 1.31269E-01
 -1      2871 8.85086E-02 9.78536E-01 9.54275E-02
 -1      2872 1.00000E-01 9.72948E-01 1.17122E-01
 -1      2873 8.33079E-02 9.74747E-01 1.15821E-01
 -1      2874 7.59026E-02 9.90677E-01 1.35710E-01
 -1      2875 1.00000E-01 9.69918E-01 1.40045E-01
 -1      2876 8.33079E-02 9.71717E-01 1.38744E-01
 -1      2877 1.00000E-01 9.61725E-01 1.58309E-01
 -1      2878 1.00000E-01 9.83292E-01 1.81320E-01
 -1      2879 7.34058E-02 9.86923E-01 1.61017E-01
 -1      2880 1.00000E-01 9.71207E-01 2.37744E-01
 -1      2881 1.00000E-01 9.45924E-01 2.16892E-01
 -1      2882 1.00000E-01 9.56714E-01 1.85418E-01
 -1      2883 7.34037E-02 9.82048E-01 1.88159E-01
 -1      2884 7.42995E-02 9.51331E-01 1.98800E-01
 -1      2885 1.00000E-01 9.54415E-01 2.98152E-01
 -1      2886 1.00000E-01 9.32023E-01 2.78093E-01
 -1      2887 5.00000E-02 9.39484E-01 2.57437E-01
 -1      2888 1.00000E-01 9.38772E-01 2.46166E-01
 -1      2889 7.42995E-02 9.44179E-01 2.28075E-01
 -1      2890 1.00000E-01 9.22315E-01 3.09175E-01
 -1      2891 7.37001E-02 9.38683E-01 3.44497E-01
 -1      2892 1.00000E-01 9.19259E-01 3.36524E-01
 -1      2893 1.00000E-01 9.33998E-01 3.57084E-01
 -1      2894 7.72582E-02 8.95607E-01 3.73897E-01
 -1      2895 7.46273E-02 9.16755E-01 3.99126E-01
 -1      2896 1.00000E-01 9.12041E-01 4.09999E-01
 -1      2897 1.00000E-01 9.01301E-01 3.89957E-01
 -1      2898 7.37002E-02 9.27978E-01 3.72319E-01
 -1      2899 1.00000E-01 9.08645E-01 3.64377E-01
 -1      2900 7.47973E-02 8.93834E-01 4.48213E-01
 -1      2901 1.00000E-01 8.91360E-01 4.53029E-01
 -1      2902 1.00000E-01 8.80691E-01 4.36139E-01
 -1      2903 7.46273E-02 9.05444E-01 4.24174E-01
 -1      2904 1.00000E-01 8.90002E-01 4.15011E-01
 -1      2905 1.00000E-01 8.57604E-01 4.76020E-01
 -1      2906 7.47987E-02 8.84576E-01 4.66236E-01
 -1      2907 1.00000E-01 8.71554E-01 4.54220E-01
 -1      2908 0.00000E+00 1.06499E-01 0.00000E+00
 -1      2909 0.00000E+00 1.03869E-01 4.12804E-03
 -1      2910 6.04201E-03 1.03869E-01 4.12804E-03
 -1      2911 1.47626E-02 1.06159E-01 0.00000E+00
 -1      2912 6.04201E-03 1.06499E-01 0.00000E+00
 -1      2913 2.87012E-02 1.06498E-01 0.00000E+00
 -1      2914 2.11549E-02 1.06159E-01 0.00000E+00
 -1      2915 3.90978E-02 1.05647E-01 7.05787E-03
 -1      2916 3.57199E-02 1.06498E-01 0.00000E+00
 -1      2917 4.37730E-02 1.07115E-01 0.00000E+00
 -1      2918 5.14847E-02 1.07115E-01 0.00000E+00
 -1      2919 5.60404E-02 1.07083E-01 9.93306E-03
 -1      2920 5.99501E-02 1.06185E-01 0.00000E+00
 -1      2921 6.83888E-02 1.06185E-01 0.00000E+00
 -1      2922 7.60418E-02 1.05809E-01 0.00000E+00
 -1      2923 7.28422E-02 1.07646E-01 6.74293E-03
 -1      2924 9.36068E-02 1.05977E-01 7.57499E-03
 -1      2925 8.40450E-02 1.05809E-01 0.00000E+00
 -1      2926 9.36068E-02 1.06696E-01 0.00000E+00
 -1      2927 1.00000E-01 1.06696E-01 0.00000E+00
 -1      2928 1.00000E-01 1.05977E-01 7.57499E-03
 -1      2929 6.12444E-03 1.18716E-01 0.00000E+00
 -1      2930 0.00000E+00 1.20596E-01 0.00000E+00
 -1      2931 0.00000E+00 1.17231E-01 6.45297E-03
 -1      2932 0.00000E+00 1.10367E-01 4.12804E-03
 -1      2933 8.72058E-03 1.12658E-01 0.00000E+00
 -1      2934 0.00000E+00 1.37219E-01 0.00000E+00
 -1      2935 0.00000E+00 1.24830E-01 6.45297E-03
 -1      2936 6.12444E-03 1.26315E-01 0.00000E+00
 -1      2937 0.00000E+00 1.33052E-01 8.58207E-03
 -1      2938 7.37858E-03 1.33125E-01 0.00000E+00
 -1      2939 6.78164E-03 1.30047E-01 7.00009E-03
 -1      2940 0.00000E+00 1.42076E-01 8.58207E-03
 -1      2941 0.00000E+00 1.59893E-01 0.00000E+00
 -1      2942 7.37858E-03 1.42150E-01 0.00000E+00
 -1      2943 9.04288E-03 1.52004E-01 0.00000E+00
 -1      2944 0.00000E+00 1.51650E-01 1.03272E-02
 -1      2945 6.51692E-03 1.46959E-01 7.32100E-03
 -1      2946 9.04288E-03 1.65653E-01 0.00000E+00
 -1      2947 0.00000E+00 1.65300E-01 1.03272E-02
 -1      2948 0.00000E+00 1.86243E-01 0.00000E+00
 -1      2949 0.00000E+00 1.78164E-01 1.22943E-02
 -1      2950 8.84740E-03 1.68744E-01 1.16266E-02
 -1      2951 1.08631E-02 1.78078E-01 0.00000E+00
 -1      2952 1.08631E-02 1.90779E-01 0.00000E+00
 -1      2953 0.00000E+00 1.90864E-01 1.22943E-02
 -1      2954 1.24162E-02 2.03450E-01 0.00000E+00
 -1      2955 1.16146E-02 1.98756E-01 1.08593E-02
 -1      2956 9.03707E-03 2.08985E-01 1.05023E-02
 -1      2957 0.00000E+00 2.04615E-01 1.51276E-02
 -1      2958 0.00000E+00 2.12597E-01 0.00000E+00
 -1      2959 0.00000E+00 2.44253E-01 0.00000E+00
 -1      2960 1.24162E-02 2.17103E-01 0.00000E+00
 -1      2961 0.00000E+00 2.31890E-01 1.74023E-02
 -1      2962 1.35964E-02 2.34390E-01 0.00000E+00
 -1      2963 9.03707E-03 2.22638E-01 1.05023E-02
 -1      2964 0.00000E+00 2.18268E-01 1.51276E-02
 -1      2965 0.00000E+00 2.79445E-01 0.00000E+00
 -1      2966 0.00000E+00 2.68211E-01 1.97182E-02
 -1      2967 2.42998E-02 2.67247E-01 0.00000E+00
 -1      2968 1.35964E-02 2.52393E-01 0.00000E+00
 -1      2969 0.00000E+00 2.49893E-01 1.74023E-02
 -1      2970 1.38590E-02 2.64724E-01 1.26898E-02
 -1      2971 0.00000E+00 2.85400E-01 1.97182E-02
 -1      2972 1.38590E-02 2.81913E-01 1.26898E-02
 -1      2973 0.00000E+00 3.02272E-01 2.06331E-02
 -1      2974 0.00000E+00 3.16346E-01 0.00000E+00
 -1      2975 2.52235E-02 3.05465E-01 0.00000E+00
 -1      2976 2.42998E-02 2.84436E-01 0.00000E+00
 -1      2977 1.52736E-02 2.97765E-01 1.32834E-02
 -1      2978 0.00000E+00 3.59178E-01 0.00000E+00
 -1      2979 2.63947E-02 3.44875E-01 0.00000E+00
 -1      2980 0.00000E+00 3.21985E-01 2.06331E-02
 -1      2981 2.06739E-02 3.41519E-01 1.66154E-02
 -1      2982 0.00000E+00 3.43358E-01 2.23787E-02
 -1      2983 2.52235E-02 3.25177E-01 0.00000E+00
 -1      2984 1.52736E-02 3.17477E-01 1.32834E-02
 -1      2985 0.00000E+00 4.10150E-01 0.00000E+00
 -1      2986 0.00000E+00 3.66477E-01 2.23787E-02
 -1      2987 0.00000E+00 3.94065E-01 2.38842E-02
 -1      2988 2.06739E-02 3.64638E-01 1.66154E-02
 -1      2989 2.63947E-02 3.67994E-01 0.00000E+00
 -1      2990 2.67270E-02 3.90871E-01 0.00000E+00
 -1      2991 0.00000E+00 4.78626E-01 0.00000E+00
 -1      2992 2.67270E-02 4.18724E-01 0.00000E+00
 -1      2993 0.00000E+00 4.57952E-01 2.52743E-02
 -1      2994 0.00000E+00 4.21918E-01 2.38842E-02
 -1      2995 2.80041E-02 4.51895E-01 0.00000E+00
 -1      2996 0.00000E+00 5.56489E-01 0.00000E+00
 -1      2997 0.00000E+00 5.38346E-01 2.70897E-02
 -1      2998 5.00000E-02 5.28487E-01 0.00000E+00
 -1      2999 5.00000E-02 5.08579E-01 2.90762E-02
 -1      3000 0.00000E+00 4.98575E-01 2.52743E-02
 -1      3001 2.80041E-02 4.92518E-01 0.00000E+00
 -1      3002 0.00000E+00 5.75587E-01 2.70897E-02
 -1      3003 5.00000E-02 5.65727E-01 0.00000E+00
 -1      3004 0.00000E+00 6.20633E-01 3.23840E-02
 -1      3005 5.00000E-02 6.04786E-01 0.00000E+00
 -1      3006 0.00000E+00 6.36116E-01 0.00000E+00
 -1      3007 2.16881E-02 6.01059E-01 2.11461E-02
 -1      3008 5.00000E-02 6.69617E-01 3.60797E-02
 -1      3009 0.00000E+00 7.01052E-01 3.11591E-02
 -1      3010 5.00000E-02 6.87712E-01 0.00000E+00
 -1      3011 0.00000E+00 7.16221E-01 0.00000E+00
 -1      3012 0.00000E+00 6.63019E-01 3.23840E-02
 -1      3013 5.00000E-02 6.47173E-01 0.00000E+00
 -1      3014 2.16881E-02 6.43445E-01 2.11461E-02
 -1      3015 0.00000E+00 7.93555E-01 0.00000E+00
 -1      3016 0.00000E+00 7.38770E-01 3.11591E-02
 -1      3017 5.00000E-02 7.63738E-01 0.00000E+00
 -1      3018 5.00000E-02 7.25430E-01 0.00000E+00
 -1      3019 0.00000E+00 7.73576E-01 2.93074E-02
 -1      3020 5.00000E-02 7.50303E-01 3.13352E-02
 -1      3021 2.58596E-02 7.83922E-01 0.00000E+00
 -1      3022 2.61223E-02 8.52716E-01 0.00000E+00
 -1      3023 0.00000E+00 8.13193E-01 2.93074E-02
 -1      3024 2.58596E-02 8.23539E-01 0.00000E+00
 -1      3025 2.11945E-02 8.43328E-01 2.03230E-02
 -1      3026 0.00000E+00 8.50969E-01 2.35589E-02
 -1      3027 0.00000E+00 8.57381E-01 0.00000E+00
 -1      3028 1.64580E-02 8.92375E-01 2.47562E-02
 -1      3029 2.61223E-02 8.76925E-01 0.00000E+00
 -1      3030 0.00000E+00 8.99059E-01 2.16767E-02
 -1      3031 1.71645E-02 8.98481E-01 0.00000E+00
 -1      3032 0.00000E+00 9.05132E-01 0.00000E+00
 -1      3033 2.11945E-02 8.67537E-01 2.03230E-02
 -1      3034 0.00000E+00 8.75178E-01 2.35589E-02
 -1      3035 0.00000E+00 9.43868E-01 2.01632E-02
 -1      3036 1.69446E-02 9.44324E-01 0.00000E+00
 -1      3037 0.00000E+00 9.48960E-01 0.00000E+00
 -1      3038 1.78104E-02 9.33522E-01 1.43599E-02
 -1      3039 0.00000E+00 9.22601E-01 2.16767E-02
 -1      3040 1.71645E-02 9.22023E-01 0.00000E+00
 -1      3041 1.69446E-02 9.64611E-01 0.00000E+00
 -1      3042 1.78104E-02 9.53808E-01 1.43599E-02
 -1      3043 0.00000E+00 9.64155E-01 2.01632E-02
 -1      3044 1.23825E-02 9.70387E-01 1.81922E-02
 -1      3045 1.00000E-01 1.20884E-01 0.00000E+00
 -1      3046 9.39304E-02 1.18428E-01 0.00000E+00
 -1      3047 1.00000E-01 1.12673E-01 7.57499E-03
 -1      3048 9.04383E-02 1.12505E-01 0.00000E+00
 -1      3049 1.00000E-01 1.20165E-01 7.57499E-03
 -1      3050 1.00000E-01 1.37967E-01 0.00000E+00
 -1      3051 1.00000E-01 1.32675E-01 8.89944E-03
 -1      3052 9.00987E-02 1.32679E-01 0.00000E+00
 -1      3053 9.27213E-02 1.28304E-01 8.18446E-03
 -1      3054 9.39304E-02 1.25920E-01 0.00000E+00
 -1      3055 1.00000E-01 1.58818E-01 0.00000E+00
 -1      3056 9.24785E-02 1.47472E-01 1.11599E-02
 -1      3057 1.00000E-01 1.52040E-01 9.13609E-03
 -1      3058 8.99009E-02 1.53901E-01 0.00000E+00
 -1      3059 1.00000E-01 1.42266E-01 8.89944E-03
 -1      3060 9.00987E-02 1.42271E-01 0.00000E+00
 -1      3061 8.99009E-02 1.65160E-01 0.00000E+00
 -1      3062 1.00000E-01 1.79045E-01 0.00000E+00
 -1      3063 1.00000E-01 1.63299E-01 9.13609E-03
 -1      3064 9.27229E-02 1.68665E-01 9.25157E-03
 -1      3065 1.00000E-01 1.73824E-01 1.04155E-02
 -1      3066 9.15965E-02 1.74653E-01 0.00000E+00
 -1      3067 1.00000E-01 2.01293E-01 0.00000E+00
 -1      3068 1.00000E-01 1.97404E-01 1.35798E-02
 -1      3069 1.00000E-01 1.82793E-01 1.04155E-02
 -1      3070 8.66583E-02 1.93974E-01 0.00000E+00
 -1      3071 8.89986E-02 1.89479E-01 1.04905E-02
 -1      3072 9.15965E-02 1.83622E-01 0.00000E+00
 -1      3073 1.00000E-01 2.25525E-01 1.58411E-02
 -1      3074 1.00000E-01 2.10683E-01 1.35798E-02
 -1      3075 8.66583E-02 2.07253E-01 0.00000E+00
 -1      3076 7.94846E-02 2.19337E-01 0.00000E+00
 -1      3077 8.82496E-02 2.18339E-01 1.21193E-02
 -1      3078 1.00000E-01 2.34836E-01 0.00000E+00
 -1      3079 1.00000E-01 2.45790E-01 1.58411E-02
 -1      3080 8.19055E-02 2.52651E-01 1.94271E-02
 -1      3081 1.00000E-01 2.62081E-01 1.77101E-02
 -1      3082 7.42998E-02 2.63669E-01 0.00000E+00
 -1      3083 8.20448E-02 2.71587E-01 1.57189E-02
 -1      3084 1.00000E-01 2.73961E-01 0.00000E+00
 -1      3085 7.94846E-02 2.39602E-01 0.00000E+00
 -1      3086 8.82496E-02 2.38604E-01 1.21193E-02
 -1      3087 8.42153E-02 3.05261E-01 1.32707E-02
 -1      3088 1.00000E-01 3.11764E-01 0.00000E+00
 -1      3089 1.00000E-01 2.99966E-01 1.83308E-02
 -1      3090 1.00000E-01 2.80940E-01 1.77101E-02
 -1      3091 7.52235E-02 3.03558E-01 0.00000E+00
 -1      3092 7.42998E-02 2.82529E-01 0.00000E+00
 -1      3093 8.20448E-02 2.90446E-01 1.57189E-02
 -1      3094 7.52235E-02 3.22502E-01 0.00000E+00
 -1      3095 1.00000E-01 3.18910E-01 1.83308E-02
 -1      3096 1.00000E-01 3.49210E-01 0.00000E+00
 -1      3097 1.00000E-01 3.37650E-01 2.05884E-02
 -1      3098 8.42153E-02 3.24205E-01 1.32707E-02
 -1      3099 7.63947E-02 3.42199E-01 0.00000E+00
 -1      3100 1.00000E-01 3.89971E-01 0.00000E+00
 -1      3101 7.67270E-02 3.83579E-01 0.00000E+00
 -1      3102 1.00000E-01 3.75015E-01 2.20167E-02
 -1      3103 1.00000E-01 3.56152E-01 2.05884E-02
 -1      3104 7.63947E-02 3.60701E-01 0.00000E+00
 -1      3105 7.67270E-02 4.05838E-01 0.00000E+00
 -1      3106 1.00000E-01 3.97274E-01 2.20167E-02
 -1      3107 1.00000E-01 4.22047E-01 2.33150E-02
 -1      3108 1.00000E-01 4.39036E-01 0.00000E+00
 -1      3109 7.80041E-02 4.39008E-01 0.00000E+00
 -1      3110 1.00000E-01 4.48853E-01 2.33150E-02
 -1      3111 1.00000E-01 5.01783E-01 0.00000E+00
 -1      3112 1.00000E-01 4.81876E-01 2.90762E-02
 -1      3113 7.80041E-02 4.65814E-01 0.00000E+00
 -1      3114 5.00000E-02 5.47584E-01 2.70897E-02
 -1      3115 1.00000E-01 5.57442E-01 3.66046E-02
 -1      3116 1.00000E-01 5.76783E-01 0.00000E+00
 -1      3117 7.16881E-02 5.73056E-01 2.11461E-02
 -1      3118 1.00000E-01 5.17817E-01 2.90762E-02
 -1      3119 7.80041E-02 5.01755E-01 0.00000E+00
 -1      3120 1.00000E-01 6.56382E-01 0.00000E+00
 -1      3121 1.00000E-01 5.96501E-01 3.66046E-02
 -1      3122 1.00000E-01 6.38287E-01 3.60797E-02
 -1      3123 7.16881E-02 6.12115E-01 2.11461E-02
 -1      3124 1.00000E-01 6.78826E-01 3.60797E-02
 -1      3125 5.00000E-02 7.10261E-01 3.11591E-02
 -1      3126 1.00000E-01 7.21794E-01 3.13352E-02
 -1      3127 1.00000E-01 7.35229E-01 0.00000E+00
 -1      3128 1.00000E-01 8.05081E-01 0.00000E+00
 -1      3129 1.00000E-01 7.91168E-01 2.81948E-02
 -1      3130 7.58596E-02 7.93722E-01 0.00000E+00
 -1      3131 1.00000E-01 7.60102E-01 3.13352E-02
 -1      3132 1.00000E-01 8.62138E-01 0.00000E+00
 -1      3133 7.61223E-02 8.54442E-01 0.00000E+00
 -1      3134 7.58596E-02 8.25265E-01 0.00000E+00
 -1      3135 1.00000E-01 8.53159E-01 2.19893E-02
 -1      3136 1.00000E-01 8.22711E-01 2.81948E-02
 -1      3137 7.11945E-02 8.45054E-01 2.03230E-02
 -1      3138 1.00000E-01 8.78673E-01 2.19893E-02
 -1      3139 1.00000E-01 9.08397E-01 0.00000E+00
 -1      3140 7.61223E-02 8.79956E-01 0.00000E+00
 -1      3141 8.22066E-02 8.92827E-01 1.91211E-02
 -1      3142 1.00000E-01 8.97294E-01 1.76159E-02
 -1      3143 8.59819E-02 9.00228E-01 0.00000E+00
 -1      3144 1.00000E-01 9.47701E-01 0.00000E+00
 -1      3145 1.00000E-01 9.18039E-01 1.76159E-02
 -1      3146 8.32239E-02 9.38491E-01 0.00000E+00
 -1      3147 8.59819E-02 9.20973E-01 0.00000E+00
 -1      3148 1.00000E-01 9.35636E-01 1.42894E-02
 -1      3149 1.00000E-01 9.54194E-01 1.42894E-02
 -1      3150 1.00000E-01 9.67338E-01 2.27963E-02
 -1      3151 8.32239E-02 9.57049E-01 0.00000E+00
 -1      3152 8.86647E-02 9.68040E-01 1.32449E-02
 -1      3153 2.47987E-02 8.57784E-01 4.69883E-01
 -1      3154 0.00000E+00 8.29767E-01 4.55413E-01
 -1      3155 0.00000E+00 8.08631E-01 4.66861E-01
 -1      3156 2.51594E-02 8.25875E-01 4.76816E-01
 -1      3157 0.00000E+00 8.09879E-01 4.43931E-01
 -1      3158 2.51594E-02 8.05986E-01 4.65334E-01
 -1      3159 2.92525E-02 7.79321E-01 4.49939E-01
 -1      3160 0.00000E+00 7.63127E-01 4.40590E-01
 -1      3161 0.00000E+00 7.90229E-01 4.29109E-01
 -1      3162 0.00000E+00 7.37298E-01 3.94293E-01
 -1      3163 5.00000E-02 7.17615E-01 4.14313E-01
 -1      3164 0.00000E+00 7.03080E-01 4.05922E-01
 -1      3165 2.92525E-02 7.53705E-01 4.35150E-01
 -1      3166 0.00000E+00 7.64614E-01 4.14320E-01
 -1      3167 0.00000E+00 7.02867E-01 3.74414E-01
 -1      3168 5.00000E-02 6.83183E-01 3.94434E-01
 -1      3169 5.00000E-02 6.83507E-01 3.55774E-01
 -1      3170 5.00000E-02 6.48509E-01 3.74415E-01
 -1      3171 0.00000E+00 6.32694E-01 3.65285E-01
 -1      3172 0.00000E+00 6.66856E-01 3.47375E-01
 -1      3173 5.00000E-02 6.11481E-01 3.10099E-01
 -1      3174 5.00000E-02 6.12554E-01 3.53657E-01
 -1      3175 0.00000E+00 6.30902E-01 3.26617E-01
 -1      3176 0.00000E+00 5.93093E-01 3.03596E-01
 -1      3177 5.00000E-02 5.74342E-01 3.31596E-01
 -1      3178 0.00000E+00 5.58495E-01 3.22446E-01
 -1      3179 0.00000E+00 4.83986E-01 2.79429E-01
 -1      3180 0.00000E+00 5.16109E-01 2.65070E-01
 -1      3181 5.00000E-02 5.34189E-01 2.64079E-01
 -1      3182 5.00000E-02 4.98470E-01 2.87791E-01
 -1      3183 0.00000E+00 5.54849E-01 2.81516E-01
 -1      3184 5.00000E-02 5.36098E-01 3.09516E-01
 -1      3185 0.00000E+00 4.15560E-01 2.39923E-01
 -1      3186 5.00000E-02 4.29127E-01 2.47756E-01
 -1      3187 0.00000E+00 4.46522E-01 2.25165E-01
 -1      3188 5.00000E-02 4.59674E-01 2.26142E-01
 -1      3189 0.00000E+00 4.79843E-01 2.44132E-01
 -1      3190 5.00000E-02 4.62204E-01 2.66853E-01
 -1      3191 0.00000E+00 3.55869E-01 2.05461E-01
 -1      3192 0.00000E+00 3.80351E-01 1.88221E-01
 -1      3193 0.00000E+00 4.14362E-01 2.06597E-01
 -1      3194 5.00000E-02 3.96967E-01 2.29189E-01
 -1      3195 5.00000E-02 3.68711E-01 2.12875E-01
 -1      3196 5.00000E-02 3.92924E-01 1.91984E-01
 -1      3197 0.00000E+00 3.04432E-01 1.75764E-01
 -1      3198 0.00000E+00 3.26346E-01 1.61133E-01
 -1      3199 0.00000E+00 3.52820E-01 1.72326E-01
 -1      3200 5.00000E-02 3.41180E-01 1.96980E-01
 -1      3201 2.83469E-02 3.11449E-01 1.79815E-01
 -1      3202 0.00000E+00 2.62149E-01 1.51352E-01
 -1      3203 0.00000E+00 2.84297E-01 1.40519E-01
 -1      3204 2.61735E-02 2.67533E-01 1.54461E-01
 -1      3205 0.00000E+00 3.02440E-01 1.47331E-01
 -1      3206 2.83469E-02 2.87543E-01 1.66014E-01
 -1      3207 0.00000E+00 2.26044E-01 1.30507E-01
 -1      3208 2.18267E-02 2.31229E-01 1.33501E-01
 -1      3209 0.00000E+00 2.48954E-01 1.23042E-01
 -1      3210 0.00000E+00 2.65920E-01 1.29909E-01
 -1      3211 2.61735E-02 2.49156E-01 1.43851E-01
 -1      3212 0.00000E+00 1.93678E-01 1.11821E-01
 -1      3213 0.00000E+00 2.31226E-01 1.12806E-01
 -1      3214 2.18267E-02 2.13501E-01 1.23266E-01
 -1      3215 1.69553E-02 1.99802E-01 1.15356E-01
 -1      3216 0.00000E+00 2.25898E-01 9.60467E-02
 -1      3217 0.00000E+00 2.08750E-01 9.44028E-02
 -1      3218 1.35213E-02 2.13568E-01 1.03802E-01
 -1      3219 1.69553E-02 1.85163E-01 1.06905E-01
 -1      3220 1.06135E-02 1.82225E-01 8.56623E-02
 -1      3221 0.00000E+00 1.94111E-01 8.59515E-02
 -1      3222 1.35213E-02 1.98930E-01 9.53511E-02
 -1      3223 1.52688E-02 1.71206E-01 9.88468E-02
 -1      3224 0.00000E+00 1.64209E-01 9.48072E-02
 -1      3225 0.00000E+00 1.76690E-01 8.64680E-02
 -1      3226 0.00000E+00 1.40523E-01 8.11321E-02