    1C
    1UModel: segment                                                    
    1UUSER                                                              
    1UDATE              29.march.2020                                   
    1UTIME              16:21:34                                        
    1UHOST                                                              
    1UPGM               CalculiX                                        
    1UVERSION           Version DEVELOPMENT                             
    1UCOMPILETIME       Sun Mar 29 13:44:32 CEST 2020                    
    1UDIR                                                               
    1UDBN                                                               
    1UMAT    1EL                                                        
    2C                          2756                                     1
 -1         1 0.00000E+00 1.00000E+00 0.00000E+00
 -1         2 3.09749E-02 1.00000E+00 0.00000E+00
 -1         3 6.47350E-02 1.00000E+00 0.00000E+00
 -1         4 1.00000E-01 1.00000E+00 0.00000E+00
 -1         5 0.00000E+00 9.99384E-01 3.43683E-02
 -1         6 0.00000E+00 9.97118E-01 7.44488E-02
 -1         7 0.00000E+00 9.92820E-01 1.18580E-01
 -1         8 0.00000E+00 9.85989E-01 1.66500E-01
 -1         9 0.00000E+00 9.74152E-01 2.25813E-01
 -1        10 0.00000E+00 9.56358E-01 2.92104E-01
 -1        11 0.00000E+00 9.37084E-01 3.48964E-01
 -1        12 0.00000E+00 9.17921E-01 3.96436E-01
 -1        13 0.00000E+00 9.00848E-01 4.33891E-01
 -1        14 0.00000E+00 8.83021E-01 4.69264E-01
 -1        15 0.00000E+00 8.66030E-01 5.00000E-01
 -1        16 3.09749E-02 8.66030E-01 5.00000E-01
 -1        17 6.47350E-02 8.66030E-01 5.00000E-01
 -1        18 1.00000E-01 8.66030E-01 5.00000E-01
 -1        19 1.00000E-01 9.99458E-01 3.28605E-02
 -1        20 1.00000E-01 9.97594E-01 6.86418E-02
 -1        21 1.00000E-01 9.94003E-01 1.08298E-01
 -1        22 1.00000E-01 9.87943E-01 1.54144E-01
 -1        23 1.00000E-01 9.77920E-01 2.08363E-01
 -1        24 1.00000E-01 9.63617E-01 2.66912E-01
 -1        25 1.00000E-01 9.44201E-01 3.29075E-01
 -1        26 1.00000E-01 9.22974E-01 3.84780E-01
 -1        27 1.00000E-01 9.00377E-01 4.34888E-01
 -1        28 1.00000E-01 8.82104E-01 4.71049E-01
 -1        29 0.00000E+00 1.00000E-01 0.00000E+00
 -1        30 1.20840E-02 1.00000E-01 0.00000E+00
 -1        31 2.48687E-02 1.00000E-01 0.00000E+00
 -1        32 3.89061E-02 1.00000E-01 0.00000E+00
 -1        33 5.43294E-02 1.00000E-01 0.00000E+00
 -1        34 7.12070E-02 1.00000E-01 0.00000E+00
 -1        35 8.72135E-02 1.00000E-01 0.00000E+00
 -1        36 1.00000E-01 1.00000E-01 0.00000E+00
 -1        37 0.00000E+00 1.12997E-01 0.00000E+00
 -1        38 0.00000E+00 1.29459E-01 0.00000E+00
 -1        39 0.00000E+00 1.48522E-01 0.00000E+00
 -1        40 0.00000E+00 1.73543E-01 0.00000E+00
 -1        41 0.00000E+00 1.98943E-01 0.00000E+00
 -1        42 0.00000E+00 2.29080E-01 0.00000E+00
 -1        43 0.00000E+00 2.62256E-01 0.00000E+00
 -1        44 0.00000E+00 2.98859E-01 0.00000E+00
 -1        45 0.00000E+00 3.39538E-01 0.00000E+00
 -1        46 0.00000E+00 3.92784E-01 0.00000E+00
 -1        47 0.00000E+00 4.52977E-01 0.00000E+00
 -1        48 0.00000E+00 5.19249E-01 0.00000E+00
 -1        49 0.00000E+00 5.96912E-01 0.00000E+00
 -1        50 0.00000E+00 6.78503E-01 0.00000E+00
 -1        51 0.00000E+00 7.53938E-01 0.00000E+00
 -1        52 0.00000E+00 8.22855E-01 0.00000E+00
 -1        53 0.00000E+00 8.81590E-01 0.00000E+00
 -1        54 0.00000E+00 9.28674E-01 0.00000E+00
 -1        55 0.00000E+00 9.67222E-01 0.00000E+00
 -1        56 1.00000E-01 1.13392E-01 0.00000E+00
 -1        57 1.00000E-01 1.30478E-01 0.00000E+00
 -1        58 1.00000E-01 1.49391E-01 0.00000E+00
 -1        59 1.00000E-01 1.70077E-01 0.00000E+00
 -1        60 1.00000E-01 1.94603E-01 0.00000E+00
 -1        61 1.00000E-01 2.21951E-01 0.00000E+00
 -1        62 1.00000E-01 2.55101E-01 0.00000E+00
 -1        63 1.00000E-01 2.92242E-01 0.00000E+00
 -1        64 1.00000E-01 3.31269E-01 0.00000E+00
 -1        65 1.00000E-01 3.73242E-01 0.00000E+00
 -1        66 1.00000E-01 4.19326E-01 0.00000E+00
 -1        67 1.00000E-01 4.70400E-01 0.00000E+00
 -1        68 1.00000E-01 5.37724E-01 0.00000E+00
 -1        69 1.00000E-01 6.13650E-01 0.00000E+00
 -1        70 1.00000E-01 6.94026E-01 0.00000E+00
 -1        71 1.00000E-01 7.73537E-01 0.00000E+00
 -1        72 1.00000E-01 8.36624E-01 0.00000E+00
 -1        73 1.00000E-01 8.87652E-01 0.00000E+00
 -1        74 1.00000E-01 9.29143E-01 0.00000E+00
 -1        75 1.00000E-01 9.66236E-01 0.00000E+00
 -1        76 0.00000E+00 8.28519E-01 4.78343E-01
 -1        77 0.00000E+00 7.83149E-01 4.52149E-01
 -1        78 0.00000E+00 7.28275E-01 4.20468E-01
 -1        79 0.00000E+00 6.68649E-01 3.86043E-01
 -1        80 0.00000E+00 5.98684E-01 3.45649E-01
 -1        81 0.00000E+00 5.20251E-01 3.00366E-01
 -1        82 0.00000E+00 4.45874E-01 2.57425E-01
 -1        83 0.00000E+00 3.83400E-01 2.21356E-01
 -1        84 0.00000E+00 3.28338E-01 1.89566E-01
 -1        85 0.00000E+00 2.83230E-01 1.63523E-01
 -1        86 0.00000E+00 2.43400E-01 1.40528E-01
 -1        87 0.00000E+00 2.10694E-01 1.21645E-01
 -1        88 0.00000E+00 1.81415E-01 1.04741E-01
 -1        89 0.00000E+00 1.54969E-01 8.94724E-02
 -1        90 0.00000E+00 1.31667E-01 7.60194E-02
 -1        91 0.00000E+00 1.13594E-01 6.55847E-02
 -1        92 0.00000E+00 9.85603E-02 5.69052E-02
 -1        93 0.00000E+00 8.66000E-02 5.00000E-02
 -1        94 1.20841E-02 8.66000E-02 5.00000E-02
 -1        95 2.48688E-02 8.66000E-02 5.00000E-02
 -1        96 3.89062E-02 8.66000E-02 5.00000E-02
 -1        97 5.43295E-02 8.66000E-02 5.00000E-02
 -1        98 7.12070E-02 8.66000E-02 5.00000E-02
 -1        99 8.72135E-02 8.66000E-02 5.00000E-02
 -1       100 1.00000E-01 8.66000E-02 5.00000E-02
 -1       101 1.00000E-01 8.33104E-01 4.80990E-01
 -1       102 1.00000E-01 7.94878E-01 4.58921E-01
 -1       103 1.00000E-01 7.46483E-01 4.30980E-01
 -1       104 1.00000E-01 6.91114E-01 3.99013E-01
 -1       105 1.00000E-01 6.28350E-01 3.62777E-01
 -1       106 1.00000E-01 5.48458E-01 3.16651E-01
 -1       107 1.00000E-01 4.77314E-01 2.75577E-01
 -1       108 1.00000E-01 4.15142E-01 2.39682E-01
 -1       109 1.00000E-01 3.59835E-01 2.07751E-01
 -1       110 1.00000E-01 3.08775E-01 1.78271E-01
 -1       111 1.00000E-01 2.57400E-01 1.48611E-01
 -1       112 1.00000E-01 2.16463E-01 1.24976E-01
 -1       113 1.00000E-01 1.85080E-01 1.06857E-01
 -1       114 1.00000E-01 1.58321E-01 9.14077E-02
 -1       115 1.00000E-01 1.34124E-01 7.74379E-02
 -1       116 1.00000E-01 1.15295E-01 6.65666E-02
 -1       117 1.00000E-01 9.88436E-02 5.70688E-02
 -1       118 0.00000E+00 9.19589E-02 3.92114E-02
 -1       119 0.00000E+00 9.67622E-02 2.51496E-02
 -1       120 0.00000E+00 9.93366E-02 1.10972E-02
 -1       121 1.00000E-01 9.21188E-02 3.88584E-02
 -1       122 1.00000E-01 9.65155E-02 2.61324E-02
 -1       123 1.00000E-01 9.91684E-02 1.28039E-02
 -1       124 3.01975E-02 9.98889E-01 4.44396E-02
 -1       125 5.75330E-02 9.96984E-01 7.60797E-02
 -1       126 4.74012E-02 9.32914E-01 3.59828E-01
 -1       127 4.95974E-02 8.87049E-01 4.61422E-01
 -1       128 6.35139E-02 9.99229E-01 3.75204E-02
 -1       129 4.68121E-02 9.85740E-01 1.67864E-01
 -1       130 4.92545E-02 9.10511E-01 4.13460E-01
 -1       131 5.18078E-02 9.92977E-01 1.17213E-01
 -1       132 3.38891E-02 9.59974E-01 0.00000E+00
 -1       133 1.85157E-02 1.12322E-01 0.00000E+00
 -1       134 3.30458E-02 1.13867E-01 0.00000E+00
 -1       135 4.86399E-02 1.14229E-01 0.00000E+00
 -1       136 6.41829E-02 1.12997E-01 0.00000E+00
 -1       137 8.08765E-02 1.11617E-01 0.00000E+00
 -1       138 1.53376E-02 1.40511E-01 0.00000E+00
 -1       139 2.23861E-02 1.84239E-01 0.00000E+00
 -1       140 2.71927E-02 2.42529E-01 0.00000E+00
 -1       141 4.87127E-02 3.16410E-01 0.00000E+00
 -1       142 5.04118E-02 4.11366E-01 0.00000E+00
 -1       143 4.92336E-02 8.64624E-01 0.00000E+00
 -1       144 8.78609E-02 1.23464E-01 0.00000E+00
 -1       145 7.98404E-02 1.39967E-01 0.00000E+00
 -1       146 7.98019E-02 1.60244E-01 0.00000E+00
 -1       147 8.30344E-02 1.80870E-01 0.00000E+00
 -1       148 7.33167E-02 1.99935E-01 0.00000E+00
 -1       149 4.85995E-02 2.72238E-01 0.00000E+00
 -1       150 6.64478E-02 9.47839E-01 0.00000E+00
 -1       151 1.22489E-02 1.24435E-01 0.00000E+00
 -1       152 1.86562E-02 1.60404E-01 0.00000E+00
 -1       153 2.57254E-02 2.12126E-01 0.00000E+00
 -1       154 5.08221E-02 3.60560E-01 0.00000E+00
 -1       155 5.22991E-02 4.70638E-01 0.00000E+00
 -1       156 3.43291E-02 9.15371E-01 0.00000E+00
 -1       157 5.94742E-02 2.29090E-01 0.00000E+00
 -1       158 5.12927E-02 8.10235E-01 0.00000E+00
 -1       159 7.00955E-02 9.09319E-01 0.00000E+00
 -1       160 2.67122E-02 1.28142E-01 0.00000E+00
 -1       161 4.23831E-02 1.30712E-01 0.00000E+00
 -1       162 5.98897E-02 1.29921E-01 0.00000E+00
 -1       163 7.39101E-02 1.23776E-01 0.00000E+00
 -1       164 3.93327E-02 1.68309E-01 0.00000E+00
 -1       165 6.12331E-02 1.74975E-01 0.00000E+00
 -1       166 4.60043E-02 1.93927E-01 0.00000E+00
 -1       167 3.30858E-02 1.46346E-01 0.00000E+00
 -1       168 5.58001E-02 1.49991E-01 0.00000E+00
 -1       169 4.90860E-02 8.20069E-01 4.73465E-01
 -1       170 5.11233E-02 7.60481E-01 4.39062E-01
 -1       171 5.23470E-02 2.54539E-01 1.46959E-01
 -1       172 3.39106E-02 1.91287E-01 1.10441E-01
 -1       173 2.51952E-02 1.41868E-01 8.19087E-02
 -1       174 1.24813E-02 1.08466E-01 6.26242E-02
 -1       175 1.79978E-02 9.75363E-02 5.63140E-02
 -1       176 4.80234E-02 9.77346E-02 5.64285E-02
 -1       177 8.06403E-02 9.74162E-02 5.62447E-02
 -1       178 7.03877E-02 1.97970E-01 1.14299E-01
 -1       179 6.77761E-02 1.72585E-01 9.96427E-02
 -1       180 6.36095E-02 1.46276E-01 8.44534E-02
 -1       181 8.66316E-02 1.08494E-01 6.26402E-02
 -1       182 7.51287E-02 1.24422E-01 7.18364E-02
 -1       183 5.36681E-02 3.00944E-01 1.73750E-01
 -1       184 4.44775E-02 2.21252E-01 1.27740E-01
 -1       185 3.04287E-02 1.64559E-01 9.50092E-02
 -1       186 1.77839E-02 1.22576E-01 7.07706E-02
 -1       187 3.27859E-02 9.73571E-02 5.62105E-02
 -1       188 6.33912E-02 9.76646E-02 5.63881E-02
 -1       189 4.24359E-02 1.24890E-01 7.21065E-02
 -1       190 2.67108E-02 1.10694E-01 6.39105E-02
 -1       191 7.21619E-02 1.07793E-01 6.22359E-02
 -1       192 4.14049E-02 1.08936E-01 6.28953E-02
 -1       193 5.65523E-02 1.11395E-01 6.43153E-02
 -1       194 1.59422E-02 9.85997E-02 1.63479E-02
 -1       195 4.65718E-02 9.82303E-02 1.85850E-02
 -1       196 8.41271E-02 9.83495E-02 1.78630E-02
 -1       197 1.58372E-02 9.34726E-02 3.53822E-02
 -1       198 3.06814E-02 9.16377E-02 3.99201E-02
 -1       199 4.38035E-02 9.29176E-02 3.68566E-02
 -1       200 5.97097E-02 9.36177E-02 3.49966E-02
 -1       201 7.56176E-02 9.36857E-02 3.48161E-02
 -1       202 8.88703E-02 9.41546E-02 3.35705E-02
 -1       203 3.13352E-02 9.91765E-02 1.27224E-02
 -1       204 6.59323E-02 9.83555E-02 1.78269E-02
 -1       205 3.04047E-02 9.62837E-02 2.68961E-02
 -1       206 0.00000E+00 9.59063E-01 4.03263E-02
 -1       207 0.00000E+00 9.50829E-01 8.49712E-02
 -1       208 0.00000E+00 9.41219E-01 1.33629E-01
 -1       209 0.00000E+00 9.29602E-01 1.86930E-01
 -1       210 0.00000E+00 9.15351E-01 2.47961E-01
 -1       211 0.00000E+00 8.98006E-01 3.05145E-01
 -1       212 0.00000E+00 8.82163E-01 3.59865E-01
 -1       213 0.00000E+00 8.70692E-01 4.12334E-01
 -1       214 0.00000E+00 1.08494E-01 9.05208E-03
 -1       215 0.00000E+00 1.21465E-01 1.29059E-02
 -1       216 0.00000E+00 1.82784E-01 2.45887E-02
 -1       217 0.00000E+00 2.10286E-01 3.02552E-02
 -1       218 0.00000E+00 2.38884E-01 3.61176E-02
 -1       219 0.00000E+00 2.74166E-01 3.94365E-02
 -1       220 0.00000E+00 3.13776E-01 4.33566E-02
 -1       221 0.00000E+00 4.20271E-01 5.47329E-02
 -1       222 0.00000E+00 4.90020E-01 5.86443E-02
 -1       223 0.00000E+00 5.65500E-01 5.90045E-02
 -1       224 0.00000E+00 6.47536E-01 6.47681E-02
 -1       225 0.00000E+00 7.21601E-01 6.50222E-02
 -1       226 0.00000E+00 7.93213E-01 5.86148E-02
 -1       227 0.00000E+00 8.57047E-01 5.09461E-02
 -1       228 0.00000E+00 9.12042E-01 4.37945E-02
 -1       229 0.00000E+00 8.31015E-01 4.32483E-01
 -1       230 0.00000E+00 7.80866E-01 3.94856E-01
 -1       231 0.00000E+00 7.26227E-01 3.54667E-01
 -1       232 0.00000E+00 6.65064E-01 3.08708E-01
 -1       233 0.00000E+00 5.89446E-01 2.62666E-01
 -1       234 0.00000E+00 5.11967E-01 2.29773E-01
 -1       235 0.00000E+00 4.44486E-01 1.91813E-01
 -1       236 0.00000E+00 3.87164E-01 1.58804E-01
 -1       237 0.00000E+00 3.31969E-01 1.35735E-01
 -1       238 0.00000E+00 2.88067E-01 1.19075E-01
 -1       239 0.00000E+00 2.54136E-01 1.05341E-01
 -1       240 0.00000E+00 2.09183E-01 6.85333E-02
 -1       241 0.00000E+00 1.51398E-01 6.38358E-02
 -1       242 0.00000E+00 1.31278E-01 5.91532E-02
 -1       243 0.00000E+00 1.18230E-01 4.83389E-02
 -1       244 0.00000E+00 1.06300E-01 3.76769E-02
 -1       245 0.00000E+00 1.09554E-01 2.16494E-02
 -1       246 0.00000E+00 3.62368E-01 4.93866E-02
 -1       247 0.00000E+00 1.75927E-01 7.08680E-02
 -1       248 0.00000E+00 8.96717E-01 9.39823E-02
 -1       249 0.00000E+00 8.83455E-01 1.48342E-01
 -1       250 0.00000E+00 8.72366E-01 2.04051E-01
 -1       251 0.00000E+00 8.58268E-01 2.64964E-01
 -1       252 0.00000E+00 8.42349E-01 3.20266E-01
 -1       253 0.00000E+00 8.31636E-01 3.75821E-01
 -1       254 0.00000E+00 4.48969E-01 1.18741E-01
 -1       255 0.00000E+00 1.23261E-01 3.01350E-02
 -1       256 0.00000E+00 1.37909E-01 1.71641E-02
 -1       257 0.00000E+00 1.58067E-01 2.11610E-02
 -1       258 0.00000E+00 2.83493E-01 7.75254E-02
 -1       259 0.00000E+00 2.45087E-01 7.19198E-02
 -1       260 0.00000E+00 5.00000E-01 1.00000E-01
 -1       261 0.00000E+00 6.13992E-01 1.29276E-01
 -1       262 0.00000E+00 6.95191E-01 1.31607E-01
 -1       263 0.00000E+00 7.68113E-01 1.19515E-01
 -1       264 0.00000E+00 8.34401E-01 1.03710E-01
 -1       265 0.00000E+00 1.66377E-01 4.52582E-02
 -1       266 0.00000E+00 7.29531E-01 2.82343E-01
 -1       267 0.00000E+00 6.62258E-01 2.13914E-01
 -1       268 0.00000E+00 3.26422E-01 8.74049E-02
 -1       269 0.00000E+00 3.78764E-01 9.99883E-02
 -1       270 0.00000E+00 1.89558E-01 4.88932E-02
 -1       271 0.00000E+00 7.84259E-01 3.34827E-01
 -1       272 0.00000E+00 1.41068E-01 4.02300E-02
 -1       273 0.00000E+00 5.01285E-01 1.67726E-01
 -1       274 0.00000E+00 5.71246E-01 1.85813E-01
 -1       275 0.00000E+00 8.17798E-01 2.20649E-01
 -1       276 0.00000E+00 7.95501E-01 2.74696E-01
 -1       277 0.00000E+00 7.51987E-01 1.99706E-01
 -1       278 0.00000E+00 8.19888E-01 1.63501E-01
 -1       279 1.00000E-01 9.68416E-01 4.55927E-02
 -1       280 1.00000E-01 9.51893E-01 1.25945E-01
 -1       281 1.00000E-01 9.13927E-01 2.25421E-01
 -1       282 1.00000E-01 8.94317E-01 3.43974E-01
 -1       283 1.00000E-01 8.61531E-01 4.37259E-01
 -1       284 1.00000E-01 1.14614E-01 1.63709E-02
 -1       285 1.00000E-01 1.57973E-01 1.91947E-02
 -1       286 1.00000E-01 2.06794E-01 2.71595E-02
 -1       287 1.00000E-01 2.69585E-01 3.51606E-02
 -1       288 1.00000E-01 3.47564E-01 4.12583E-02
 -1       289 1.00000E-01 4.44854E-01 5.73723E-02
 -1       290 1.00000E-01 5.77160E-01 7.32092E-02
 -1       291 1.00000E-01 7.41303E-01 6.65025E-02
 -1       292 1.00000E-01 8.61801E-01 4.61288E-02
 -1       293 1.00000E-01 9.42396E-01 2.80597E-02
 -1       294 1.00000E-01 8.24323E-01 4.37329E-01
 -1       295 1.00000E-01 7.46849E-01 3.64879E-01
 -1       296 1.00000E-01 6.25877E-01 2.72709E-01
 -1       297 1.00000E-01 4.77021E-01 1.94718E-01
 -1       298 1.00000E-01 3.56877E-01 1.44757E-01
 -1       299 1.00000E-01 2.53857E-01 1.03758E-01
 -1       300 1.00000E-01 1.86115E-01 7.69849E-02
 -1       301 1.00000E-01 1.33410E-01 5.57101E-02
 -1       302 1.00000E-01 1.16147E-01 5.04727E-02
 -1       303 1.00000E-01 1.07481E-01 3.74131E-02
 -1       304 1.00000E-01 9.63394E-01 8.41194E-02
 -1       305 1.00000E-01 9.32520E-01 1.70553E-01
 -1       306 1.00000E-01 9.02280E-01 2.85793E-01
 -1       307 1.00000E-01 8.79628E-01 3.95134E-01
 -1       308 1.00000E-01 1.37246E-01 1.81829E-02
 -1       309 1.00000E-01 1.81255E-01 2.19304E-02
 -1       310 1.00000E-01 2.36478E-01 3.16822E-02
 -1       311 1.00000E-01 3.07111E-01 3.66617E-02
 -1       312 1.00000E-01 3.93089E-01 4.96574E-02
 -1       313 1.00000E-01 5.06191E-01 6.49729E-02
 -1       314 1.00000E-01 6.59151E-01 7.52802E-02
 -1       315 1.00000E-01 8.08799E-01 5.63896E-02
 -1       316 1.00000E-01 9.06935E-01 3.52318E-02
 -1       317 1.00000E-01 7.91666E-01 4.07846E-01
 -1       318 1.00000E-01 6.94441E-01 3.20034E-01
 -1       319 1.00000E-01 5.48127E-01 2.27793E-01
 -1       320 1.00000E-01 4.13821E-01 1.67545E-01
 -1       321 1.00000E-01 3.03154E-01 1.15990E-01
 -1       322 1.00000E-01 2.16815E-01 8.95922E-02
 -1       323 1.00000E-01 1.58298E-01 6.30538E-02
 -1       324 1.00000E-01 2.81936E-01 7.28821E-02
 -1       325 1.00000E-01 1.45570E-01 3.86350E-02
 -1       326 1.00000E-01 1.87191E-01 4.94182E-02
 -1       327 1.00000E-01 9.00839E-01 1.26988E-01
 -1       328 1.00000E-01 7.71019E-01 2.89864E-01
 -1       329 1.00000E-01 8.02790E-01 3.54020E-01
 -1       330 1.00000E-01 3.55462E-01 9.04493E-02
 -1       331 1.00000E-01 4.64984E-01 1.20838E-01
 -1       332 1.00000E-01 5.33968E-01 1.38859E-01
 -1       333 1.00000E-01 7.14985E-01 1.45545E-01
 -1       334 1.00000E-01 8.51007E-01 1.00874E-01
 -1       335 1.00000E-01 1.25974E-01 3.55995E-02
 -1       336 1.00000E-01 6.23130E-01 1.65593E-01
 -1       337 1.00000E-01 8.47224E-01 2.44275E-01
 -1       338 1.00000E-01 8.36434E-01 4.00977E-01
 -1       339 1.00000E-01 2.13896E-01 5.73875E-02
 -1       340 1.00000E-01 8.54484E-01 3.59922E-01
 -1       341 1.00000E-01 4.06849E-01 1.05848E-01
 -1       342 1.00000E-01 9.34638E-01 6.05893E-02
 -1       343 1.00000E-01 1.66402E-01 3.89427E-02
 -1       344 1.00000E-01 2.45937E-01 6.51058E-02
 -1       345 1.00000E-01 3.19105E-01 7.31407E-02
 -1       346 1.00000E-01 8.59934E-01 1.70569E-01
 -1       347 1.00000E-01 7.93480E-01 1.24364E-01
 -1       348 1.00000E-01 8.93952E-01 7.71086E-02
 -1       349 1.00000E-01 7.01072E-01 2.34499E-01
 -1       350 1.00000E-01 9.28621E-01 9.66600E-02
 -1       351 1.00000E-01 8.46818E-01 3.08540E-01
 -1       352 1.00000E-01 7.82661E-01 2.02476E-01
 -1       353 4.66979E-02 9.24235E-01 5.66023E-02
 -1       354 5.62011E-02 8.57116E-01 1.24347E-01
 -1       355 4.13130E-02 8.45071E-01 4.16895E-02
 -1       356 6.41844E-02 9.11531E-01 1.43462E-01
 -1       357 4.87134E-02 9.24239E-01 1.96666E-01
 -1       358 4.94511E-02 8.54109E-01 2.23895E-01
 -1       359 5.14847E-02 8.52846E-01 2.95698E-01
 -1       360 5.09122E-02 9.63614E-01 5.64498E-02
 -1       361 2.64696E-02 9.67001E-01 7.88939E-02
 -1       362 5.45165E-02 8.68240E-01 3.63014E-01
 -1       363 5.42988E-02 8.07341E-01 3.60936E-01
 -1       364 7.08769E-02 9.33192E-01 4.90155E-02
 -1       365 5.15951E-02 9.64922E-01 9.17355E-02
 -1       366 4.46999E-02 2.55906E-01 8.63190E-02
 -1       367 3.56826E-02 3.15258E-01 6.14622E-02
 -1       368 5.54354E-02 3.47350E-01 9.12230E-02
 -1       369 8.46292E-02 1.68653E-01 1.98987E-02
 -1       370 8.52763E-02 1.28558E-01 1.72780E-02
 -1       371 5.12800E-02 1.66884E-01 3.91912E-02
 -1       372 2.12270E-02 1.85411E-01 6.79549E-02
 -1       373 4.95402E-02 1.94253E-01 6.43725E-02
 -1       374 7.79973E-02 1.90945E-01 2.09810E-02
 -1       375 4.62109E-02 1.27892E-01 1.94646E-02
 -1       376 1.75312E-02 1.39448E-01 3.40416E-02
 -1       377 1.76948E-02 1.63945E-01 2.32532E-02
 -1       378 5.18818E-02 1.85259E-01 2.29581E-02
 -1       379 4.82357E-02 2.12795E-01 2.66438E-02
 -1       380 6.38109E-02 2.50201E-01 3.88542E-02
 -1       381 1.86428E-02 2.20717E-01 2.13780E-02
 -1       382 2.16516E-02 2.11198E-01 4.96237E-02
 -1       383 8.19626E-02 2.25563E-01 5.31370E-02
 -1       384 6.97971E-02 2.86945E-01 7.07724E-02
 -1       385 6.46853E-02 2.25541E-01 8.45144E-02
 -1       386 6.08219E-02 2.19304E-01 5.09470E-02
 -1       387 2.24262E-02 1.18327E-01 1.80833E-02
 -1       388 1.35633E-02 1.31899E-01 1.40002E-02
 -1       389 7.64991E-02 2.22107E-01 2.42386E-02
 -1       390 6.40896E-02 2.88072E-01 3.14379E-02
 -1       391 6.80557E-02 3.23306E-01 2.55241E-02
 -1       392 2.77181E-02 2.67192E-01 2.53797E-02
 -1       393 2.98916E-02 3.04750E-01 2.69583E-02
 -1       394 3.05805E-02 2.75274E-01 5.61251E-02
 -1       395 3.47996E-02 2.35868E-01 5.09253E-02
 -1       396 2.70425E-02 2.18819E-01 8.73325E-02
 -1       397 4.12668E-02 2.94221E-01 1.03411E-01
 -1       398 1.94998E-02 1.12079E-01 4.03298E-02
 -1       399 3.65444E-02 1.30148E-01 3.77361E-02
 -1       400 5.77514E-02 1.14167E-01 1.98661E-02
 -1       401 7.44773E-02 1.15293E-01 1.34859E-02
 -1       402 3.91856E-02 1.12139E-01 1.51084E-02
 -1       403 5.07645E-02 1.45579E-01 1.78825E-02
 -1       404 5.53427E-02 1.08129E-01 4.46782E-02
 -1       405 6.83816E-02 1.36472E-01 1.78524E-02
 -1       406 7.92641E-02 1.31349E-01 4.47420E-02
 -1       407 5.59148E-02 1.25640E-01 5.41845E-02
 -1       408 7.12818E-02 3.22682E-01 5.50368E-02
 -1       409 7.64207E-02 1.12031E-01 3.72011E-02
 -1       410 2.91672E-02 1.41289E-01 1.60716E-02
 -1       411 3.89531E-02 1.11219E-01 3.94197E-02
 -1       412 1.30338E-02 1.47675E-01 1.46420E-02
 -1       413 4.00170E-02 1.46699E-01 3.36628E-02
 -1       414 3.39639E-02 1.42586E-01 5.48434E-02
 -1       415 5.42809E-02 1.47718E-01 5.24599E-02
 -1       416 1.48698E-02 1.37678E-01 5.58470E-02
 -1       417 2.81126E-02 1.60352E-01 4.60463E-02
 -1       418 2.94100E-02 1.82377E-01 4.03028E-02
 -1       419 2.95742E-02 1.25395E-01 5.52315E-02
 -1       420 7.73294E-02 9.69819E-01 2.64898E-02
 -1       421 3.52003E-02 9.37113E-01 2.80474E-02
 -1       422 6.44153E-02 8.94041E-01 3.74261E-02
 -1       423 8.49570E-02 1.47385E-01 2.23198E-02
 -1       424 6.48312E-02 1.64772E-01 1.72629E-02
 -1       425 1.92537E-02 1.59678E-01 6.72340E-02
 -1       426 4.30004E-02 1.62871E-01 6.72269E-02
 -1       427 2.32291E-02 1.98569E-01 2.17186E-02
 -1       428 3.99992E-02 3.54920E-01 3.64125E-02
 -1       429 8.03525E-02 1.47491E-01 6.09305E-02
 -1       430 8.60160E-02 1.68940E-01 6.97954E-02
 -1       431 6.75287E-02 1.72570E-01 6.12944E-02
 -1       432 8.37224E-02 1.85761E-01 5.84562E-02
 -1       433 7.70048E-02 2.04545E-01 6.72035E-02
 -1       434 7.99573E-02 1.89226E-01 8.48746E-02
 -1       435 7.04699E-02 1.53286E-01 3.74139E-02
 -1       436 7.41930E-02 1.77716E-01 3.65701E-02
 -1       437 7.48978E-02 2.00895E-01 4.47449E-02
 -1       438 3.92449E-02 1.62401E-01 1.97539E-02
 -1       439 3.16645E-02 1.78923E-01 1.63855E-02
 -1       440 7.92115E-02 9.69036E-01 5.53440E-02
 -1       441 7.59061E-02 9.63791E-01 8.71295E-02
 -1       442 4.33088E-02 8.55282E-01 4.12554E-01
 -1       443 5.39540E-02 9.37173E-01 8.37993E-02
 -1       444 2.69429E-02 9.20016E-01 8.00312E-02
 -1       445 3.30885E-02 9.44987E-01 1.10605E-01
 -1       446 6.66158E-02 9.55492E-01 1.23344E-01
 -1       447 3.61601E-02 9.03597E-01 1.12709E-01
 -1       448 3.26848E-02 9.44946E-01 1.49233E-01
 -1       449 5.89699E-02 9.05835E-01 7.49003E-02
 -1       450 6.41586E-02 8.67586E-01 7.82206E-02
 -1       451 2.70826E-02 8.77755E-01 8.77076E-02
 -1       452 7.16466E-02 9.08451E-01 1.09283E-01
 -1       453 4.95748E-02 9.70293E-01 2.42585E-02
 -1       454 2.32420E-02 9.71898E-01 3.57238E-02
 -1       455 2.47790E-02 9.40509E-01 5.68376E-02
 -1       456 2.97081E-02 8.95124E-01 4.79268E-02
 -1       457 2.58410E-02 8.86392E-01 3.90942E-01
 -1       458 5.70955E-02 1.30307E-01 3.47918E-02
 -1       459 4.92735E-02 6.10188E-01 4.51923E-02
 -1       460 1.54874E-02 1.00000E+00 0.00000E+00
 -1       461 4.78549E-02 1.00000E+00 0.00000E+00
 -1       462 8.23675E-02 1.00000E+00 0.00000E+00
 -1       463 0.00000E+00 9.99719E-01 1.71851E-02
 -1       464 0.00000E+00 9.98399E-01 5.44183E-02
 -1       465 0.00000E+00 9.95306E-01 9.65478E-02
 -1       466 0.00000E+00 9.89659E-01 1.42576E-01
 -1       467 0.00000E+00 9.80536E-01 1.96249E-01
 -1       468 0.00000E+00 9.65843E-01 2.59116E-01
 -1       469 0.00000E+00 9.47174E-01 3.20688E-01
 -1       470 0.00000E+00 9.27783E-01 3.72814E-01
 -1       471 0.00000E+00 9.09649E-01 4.15283E-01
 -1       472 0.00000E+00 8.92071E-01 4.51645E-01
 -1       473 0.00000E+00 8.74560E-01 4.84651E-01
 -1       474 1.54874E-02 8.66030E-01 5.00000E-01
 -1       475 4.78549E-02 8.66030E-01 5.00000E-01
 -1       476 8.23675E-02 8.66030E-01 5.00000E-01
 -1       477 1.00000E-01 9.99731E-01 1.64304E-02
 -1       478 1.00000E-01 9.98579E-01 5.07546E-02
 -1       479 1.00000E-01 9.95967E-01 8.84866E-02
 -1       480 1.00000E-01 9.91336E-01 1.31269E-01
 -1       481 1.00000E-01 9.83292E-01 1.81320E-01
 -1       482 1.00000E-01 9.71207E-01 2.37744E-01
 -1       483 1.00000E-01 9.54415E-01 2.98151E-01
 -1       484 1.00000E-01 9.33999E-01 3.57084E-01
 -1       485 1.00000E-01 9.12041E-01 4.10000E-01
 -1       486 1.00000E-01 8.91360E-01 4.53028E-01
 -1       487 1.00000E-01 8.74073E-01 4.85528E-01
 -1       488 6.04201E-03 1.00000E-01 0.00000E+00
 -1       489 1.84764E-02 1.00000E-01 0.00000E+00
 -1       490 3.18874E-02 1.00000E-01 0.00000E+00
 -1       491 4.66178E-02 1.00000E-01 0.00000E+00
 -1       492 6.27682E-02 1.00000E-01 0.00000E+00
 -1       493 7.92103E-02 1.00000E-01 0.00000E+00
 -1       494 9.36068E-02 1.00000E-01 0.00000E+00
 -1       495 0.00000E+00 1.06499E-01 0.00000E+00
 -1       496 0.00000E+00 1.21228E-01 0.00000E+00
 -1       497 0.00000E+00 1.38990E-01 0.00000E+00
 -1       498 0.00000E+00 1.61032E-01 0.00000E+00
 -1       499 0.00000E+00 1.86243E-01 0.00000E+00
 -1       500 0.00000E+00 2.14011E-01 0.00000E+00
 -1       501 0.00000E+00 2.45668E-01 0.00000E+00
 -1       502 0.00000E+00 2.80557E-01 0.00000E+00
 -1       503 0.00000E+00 3.19198E-01 0.00000E+00
 -1       504 0.00000E+00 3.66161E-01 0.00000E+00
 -1       505 0.00000E+00 4.22881E-01 0.00000E+00
 -1       506 0.00000E+00 4.86113E-01 0.00000E+00
 -1       507 0.00000E+00 5.58081E-01 0.00000E+00
 -1       508 0.00000E+00 6.37708E-01 0.00000E+00
 -1       509 0.00000E+00 7.16221E-01 0.00000E+00
 -1       510 0.00000E+00 7.88396E-01 0.00000E+00
 -1       511 0.00000E+00 8.52222E-01 0.00000E+00
 -1       512 0.00000E+00 9.05132E-01 0.00000E+00
 -1       513 0.00000E+00 9.47948E-01 0.00000E+00
 -1       514 0.00000E+00 9.83611E-01 0.00000E+00
 -1       515 1.00000E-01 1.06696E-01 0.00000E+00
 -1       516 1.00000E-01 1.21935E-01 0.00000E+00
 -1       517 1.00000E-01 1.39935E-01 0.00000E+00
 -1       518 1.00000E-01 1.59734E-01 0.00000E+00
 -1       519 1.00000E-01 1.82340E-01 0.00000E+00
 -1       520 1.00000E-01 2.08277E-01 0.00000E+00
 -1       521 1.00000E-01 2.38526E-01 0.00000E+00
 -1       522 1.00000E-01 2.73671E-01 0.00000E+00
 -1       523 1.00000E-01 3.11756E-01 0.00000E+00
 -1       524 1.00000E-01 3.52255E-01 0.00000E+00
 -1       525 1.00000E-01 3.96284E-01 0.00000E+00
 -1       526 1.00000E-01 4.44863E-01 0.00000E+00
 -1       527 1.00000E-01 5.04062E-01 0.00000E+00
 -1       528 1.00000E-01 5.75687E-01 0.00000E+00
 -1       529 1.00000E-01 6.53838E-01 0.00000E+00
 -1       530 1.00000E-01 7.33782E-01 0.00000E+00
 -1       531 1.00000E-01 8.05081E-01 0.00000E+00
 -1       532 1.00000E-01 8.62138E-01 0.00000E+00
 -1       533 1.00000E-01 9.08397E-01 0.00000E+00
 -1       534 1.00000E-01 9.47689E-01 0.00000E+00
 -1       535 1.00000E-01 9.83118E-01 0.00000E+00
 -1       536 0.00000E+00 8.47275E-01 4.89172E-01
 -1       537 0.00000E+00 8.05834E-01 4.65246E-01
 -1       538 0.00000E+00 7.55712E-01 4.36309E-01
 -1       539 0.00000E+00 6.98462E-01 4.03255E-01
 -1       540 0.00000E+00 6.33666E-01 3.65846E-01
 -1       541 0.00000E+00 5.59468E-01 3.23008E-01
 -1       542 0.00000E+00 4.83063E-01 2.78896E-01
 -1       543 0.00000E+00 4.14637E-01 2.39391E-01
 -1       544 0.00000E+00 3.55869E-01 2.05461E-01
 -1       545 0.00000E+00 3.05784E-01 1.76545E-01
 -1       546 0.00000E+00 2.63315E-01 1.52026E-01
 -1       547 0.00000E+00 2.27047E-01 1.31086E-01
 -1       548 0.00000E+00 1.96055E-01 1.13193E-01
 -1       549 0.00000E+00 1.68192E-01 9.71067E-02
 -1       550 0.00000E+00 1.43318E-01 8.27459E-02
 -1       551 0.00000E+00 1.22630E-01 7.08020E-02
 -1       552 0.00000E+00 1.06077E-01 6.12449E-02
 -1       553 0.00000E+00 9.25801E-02 5.34526E-02
 -1       554 6.04203E-03 8.66000E-02 5.00000E-02
 -1       555 1.84764E-02 8.66000E-02 5.00000E-02
 -1       556 3.18875E-02 8.66000E-02 5.00000E-02
 -1       557 4.66178E-02 8.66000E-02 5.00000E-02
 -1       558 6.27682E-02 8.66000E-02 5.00000E-02
 -1       559 7.92102E-02 8.66000E-02 5.00000E-02
 -1       560 9.36068E-02 8.66000E-02 5.00000E-02
 -1       561 1.00000E-01 8.49567E-01 4.90495E-01
 -1       562 1.00000E-01 8.13991E-01 4.69956E-01
 -1       563 1.00000E-01 7.70680E-01 4.44950E-01
 -1       564 1.00000E-01 7.18798E-01 4.14996E-01
 -1       565 1.00000E-01 6.59732E-01 3.80895E-01
 -1       566 1.00000E-01 5.88404E-01 3.39714E-01
 -1       567 1.00000E-01 5.12886E-01 2.96114E-01
 -1       568 1.00000E-01 4.46228E-01 2.57629E-01
 -1       569 1.00000E-01 3.87488E-01 2.23716E-01
 -1       570 1.00000E-01 3.34305E-01 1.93011E-01
 -1       571 1.00000E-01 2.83088E-01 1.63441E-01
 -1       572 1.00000E-01 2.36932E-01 1.36793E-01
 -1       573 1.00000E-01 2.00771E-01 1.15916E-01
 -1       574 1.00000E-01 1.71700E-01 9.91322E-02
 -1       575 1.00000E-01 1.46223E-01 8.44228E-02
 -1       576 1.00000E-01 1.24709E-01 7.20023E-02
 -1       577 1.00000E-01 1.07069E-01 6.18177E-02
 -1       578 1.00000E-01 9.27218E-02 5.35344E-02
 -1       579 0.00000E+00 8.94411E-02 4.46854E-02
 -1       580 0.00000E+00 9.46416E-02 3.22766E-02
 -1       581 0.00000E+00 9.82990E-02 1.81688E-02
 -1       582 0.00000E+00 9.98178E-02 5.55843E-03