    1C
    1UModel: segment                                                    
    1UUSER                                                              
    1UDATE              23.april.2025                                   
    1UTIME              21:43:40                                        
    1UHOST                                                              
    1UPGM               CalculiX                                        
    1UVERSION           Version DEVELOPMENT                             
    1UCOMPILETIME       Wed Apr 23 18:46:08 CEST 2025                    
    1UDIR                                                               
    1UDBN                                                               
    1UMAT    1EL                                                        
    2C                          2756                                     1
 -1         1 0.00000E+00 1.00000E+00 0.00000E+00
 -1         2 3.09749E-02 1.00000E+00 0.00000E+00
 -1         3 6.47350E-02 1.00000E+00 0.00000E+00
 -1         4 1.00000E-01 1.00000E+00 0.00000E+00
 -1         5 0.00000E+00 9.99384E-01 3.43683E-02
 -1         6 0.00000E+00 9.97118E-01 7.44488E-02
 -1         7 0.00000E+00 9.92820E-01 1.18580E-01
 -1         8 0.00000E+00 9.85989E-01 1.66500E-01
 -1         9 0.00000E+00 9.74152E-01 2.25813E-01
 -1        10 0.00000E+00 9.56358E-01 2.92104E-01
 -1        11 0.00000E+00 9.37084E-01 3.48964E-01
 -1        12 0.00000E+00 9.17921E-01 3.96436E-01
 -1        13 0.00000E+00 9.00848E-01 4.33891E-01
 -1        14 0.00000E+00 8.83021E-01 4.69264E-01
 -1        15 0.00000E+00 8.66030E-01 5.00000E-01
 -1        16 3.09749E-02 8.66030E-01 5.00000E-01
 -1        17 6.47350E-02 8.66030E-01 5.00000E-01
 -1        18 1.00000E-01 8.66030E-01 5.00000E-01
 -1        19 1.00000E-01 9.99458E-01 3.28605E-02
 -1        20 1.00000E-01 9.97594E-01 6.86418E-02
 -1        21 1.00000E-01 9.94003E-01 1.08298E-01
 -1        22 1.00000E-01 9.87943E-01 1.54144E-01
 -1        23 1.00000E-01 9.77920E-01 2.08363E-01
 -1        24 1.00000E-01 9.63617E-01 2.66912E-01
 -1        25 1.00000E-01 9.44201E-01 3.29075E-01
 -1        26 1.00000E-01 9.22974E-01 3.84780E-01
 -1        27 1.00000E-01 9.00377E-01 4.34888E-01
 -1        28 1.00000E-01 8.82104E-01 4.71049E-01
 -1        29 0.00000E+00 1.00000E-01 0.00000E+00
 -1        30 1.20840E-02 1.00000E-01 0.00000E+00
 -1        31 2.48687E-02 1.00000E-01 0.00000E+00
 -1        32 3.89061E-02 1.00000E-01 0.00000E+00
 -1        33 5.43294E-02 1.00000E-01 0.00000E+00
 -1        34 7.12070E-02 1.00000E-01 0.00000E+00
 -1        35 8.72135E-02 1.00000E-01 0.00000E+00
 -1        36 1.00000E-01 1.00000E-01 0.00000E+00
 -1        37 0.00000E+00 1.12997E-01 0.00000E+00
 -1        38 0.00000E+00 1.28195E-01 0.00000E+00
 -1        39 0.00000E+00 1.46244E-01 0.00000E+00
 -1        40 0.00000E+00 1.73543E-01 0.00000E+00
 -1        41 0.00000E+00 1.98943E-01 0.00000E+00
 -1        42 0.00000E+00 2.26250E-01 0.00000E+00
 -1        43 0.00000E+00 2.62256E-01 0.00000E+00
 -1        44 0.00000E+00 2.96634E-01 0.00000E+00
 -1        45 0.00000E+00 3.36059E-01 0.00000E+00
 -1        46 0.00000E+00 3.82297E-01 0.00000E+00
 -1        47 0.00000E+00 4.38003E-01 0.00000E+00
 -1        48 0.00000E+00 5.19249E-01 0.00000E+00
 -1        49 0.00000E+00 5.93730E-01 0.00000E+00
 -1        50 0.00000E+00 6.78503E-01 0.00000E+00
 -1        51 0.00000E+00 7.53938E-01 0.00000E+00
 -1        52 0.00000E+00 8.33173E-01 0.00000E+00
 -1        53 0.00000E+00 8.81590E-01 0.00000E+00
 -1        54 0.00000E+00 9.28674E-01 0.00000E+00
 -1        55 0.00000E+00 9.69247E-01 0.00000E+00
 -1        56 1.00000E-01 1.13392E-01 0.00000E+00
 -1        57 1.00000E-01 1.28376E-01 0.00000E+00
 -1        58 1.00000E-01 1.47559E-01 0.00000E+00
 -1        59 1.00000E-01 1.70077E-01 0.00000E+00
 -1        60 1.00000E-01 1.88013E-01 0.00000E+00
 -1        61 1.00000E-01 2.14572E-01 0.00000E+00
 -1        62 1.00000E-01 2.55101E-01 0.00000E+00
 -1        63 1.00000E-01 2.92820E-01 0.00000E+00
 -1        64 1.00000E-01 3.30708E-01 0.00000E+00
 -1        65 1.00000E-01 3.68738E-01 0.00000E+00
 -1        66 1.00000E-01 4.14749E-01 0.00000E+00
 -1        67 1.00000E-01 4.70400E-01 0.00000E+00
 -1        68 1.00000E-01 5.37724E-01 0.00000E+00
 -1        69 1.00000E-01 6.15842E-01 0.00000E+00
 -1        70 1.00000E-01 6.96921E-01 0.00000E+00
 -1        71 1.00000E-01 7.73537E-01 0.00000E+00
 -1        72 1.00000E-01 8.36624E-01 0.00000E+00
 -1        73 1.00000E-01 8.87652E-01 0.00000E+00
 -1        74 1.00000E-01 9.29143E-01 0.00000E+00
 -1        75 1.00000E-01 9.66260E-01 0.00000E+00
 -1        76 0.00000E+00 8.28519E-01 4.78343E-01
 -1        77 0.00000E+00 7.88743E-01 4.55379E-01
 -1        78 0.00000E+00 7.37511E-01 4.25800E-01
 -1        79 0.00000E+00 6.68649E-01 3.86043E-01
 -1        80 0.00000E+00 5.96739E-01 3.44526E-01
 -1        81 0.00000E+00 5.20251E-01 3.00366E-01
 -1        82 0.00000E+00 4.47720E-01 2.58491E-01
 -1        83 0.00000E+00 3.83400E-01 2.21356E-01
 -1        84 0.00000E+00 3.28338E-01 1.89566E-01
 -1        85 0.00000E+00 2.80526E-01 1.61962E-01
 -1        86 0.00000E+00 2.43772E-01 1.40742E-01
 -1        87 0.00000E+00 2.08316E-01 1.20272E-01
 -1        88 0.00000E+00 1.79040E-01 1.03370E-01
 -1        89 0.00000E+00 1.49378E-01 8.62448E-02
 -1        90 0.00000E+00 1.31667E-01 7.60194E-02
 -1        91 0.00000E+00 1.13594E-01 6.55847E-02
 -1        92 0.00000E+00 9.78546E-02 5.64978E-02
 -1        93 0.00000E+00 8.66000E-02 5.00000E-02
 -1        94 1.20841E-02 8.66000E-02 5.00000E-02
 -1        95 2.48688E-02 8.66000E-02 5.00000E-02
 -1        96 3.89062E-02 8.66000E-02 5.00000E-02
 -1        97 5.43295E-02 8.66000E-02 5.00000E-02
 -1        98 7.12070E-02 8.66000E-02 5.00000E-02
 -1        99 8.72135E-02 8.66000E-02 5.00000E-02
 -1       100 1.00000E-01 8.66000E-02 5.00000E-02
 -1       101 1.00000E-01 8.33104E-01 4.80990E-01
 -1       102 1.00000E-01 7.93634E-01 4.58202E-01
 -1       103 1.00000E-01 7.56569E-01 4.36803E-01
 -1       104 1.00000E-01 6.97718E-01 4.02826E-01
 -1       105 1.00000E-01 6.28370E-01 3.62788E-01
 -1       106 1.00000E-01 5.51945E-01 3.18665E-01
 -1       107 1.00000E-01 4.76689E-01 2.75216E-01
 -1       108 1.00000E-01 4.10534E-01 2.37022E-01
 -1       109 1.00000E-01 3.54021E-01 2.04394E-01
 -1       110 1.00000E-01 2.96893E-01 1.71412E-01
 -1       111 1.00000E-01 2.57400E-01 1.48611E-01
 -1       112 1.00000E-01 2.16463E-01 1.24976E-01
 -1       113 1.00000E-01 1.85080E-01 1.06857E-01
 -1       114 1.00000E-01 1.56948E-01 9.06150E-02
 -1       115 1.00000E-01 1.32871E-01 7.67141E-02
 -1       116 1.00000E-01 1.15295E-01 6.65666E-02
 -1       117 1.00000E-01 9.88436E-02 5.70688E-02
 -1       118 0.00000E+00 9.19589E-02 3.92114E-02
 -1       119 0.00000E+00 9.67622E-02 2.51496E-02
 -1       120 0.00000E+00 9.93366E-02 1.10972E-02
 -1       121 1.00000E-01 9.21188E-02 3.88584E-02
 -1       122 1.00000E-01 9.65155E-02 2.61324E-02
 -1       123 1.00000E-01 9.91684E-02 1.28039E-02
 -1       124 3.01975E-02 9.98889E-01 4.44396E-02
 -1       125 5.75330E-02 9.96984E-01 7.60797E-02
 -1       126 4.74012E-02 9.32914E-01 3.59828E-01
 -1       127 4.95974E-02 8.87049E-01 4.61422E-01
 -1       128 6.35139E-02 9.99229E-01 3.75204E-02
 -1       129 4.68121E-02 9.85740E-01 1.67864E-01
 -1       130 4.92545E-02 9.10511E-01 4.13460E-01
 -1       131 5.18078E-02 9.92977E-01 1.17213E-01
 -1       132 3.38891E-02 9.59974E-01 0.00000E+00
 -1       133 1.74412E-02 1.12319E-01 0.00000E+00
 -1       134 3.25337E-02 1.12997E-01 0.00000E+00
 -1       135 4.86399E-02 1.14229E-01 0.00000E+00
 -1       136 6.55707E-02 1.12369E-01 0.00000E+00
 -1       137 8.08765E-02 1.11617E-01 0.00000E+00
 -1       138 1.47572E-02 1.38056E-01 0.00000E+00
 -1       139 2.17263E-02 1.82614E-01 0.00000E+00
 -1       140 2.71927E-02 2.42529E-01 0.00000E+00
 -1       141 5.04470E-02 3.14296E-01 0.00000E+00
 -1       142 5.33984E-02 3.99971E-01 0.00000E+00
 -1       143 5.22447E-02 8.72259E-01 0.00000E+00
 -1       144 8.78609E-02 1.23464E-01 0.00000E+00
 -1       145 8.01975E-02 1.36983E-01 0.00000E+00
 -1       146 7.98019E-02 1.60244E-01 0.00000E+00
 -1       147 8.31931E-02 1.79230E-01 0.00000E+00
 -1       148 7.33167E-02 1.99935E-01 0.00000E+00
 -1       149 4.85995E-02 2.72238E-01 0.00000E+00
 -1       150 6.64478E-02 9.47839E-01 0.00000E+00
 -1       151 1.22489E-02 1.24435E-01 0.00000E+00
 -1       152 1.80858E-02 1.57764E-01 0.00000E+00
 -1       153 2.48325E-02 2.07957E-01 0.00000E+00
 -1       154 5.28220E-02 3.53157E-01 0.00000E+00
 -1       155 5.60082E-02 4.65786E-01 0.00000E+00
 -1       156 3.43291E-02 9.15371E-01 0.00000E+00
 -1       157 5.89693E-02 2.24103E-01 0.00000E+00
 -1       158 5.17192E-02 8.13906E-01 0.00000E+00
 -1       159 7.19638E-02 9.12804E-01 0.00000E+00
 -1       160 2.45536E-02 1.26291E-01 0.00000E+00
 -1       161 4.16795E-02 1.27970E-01 0.00000E+00
 -1       162 6.14452E-02 1.26093E-01 0.00000E+00
 -1       163 7.44874E-02 1.22849E-01 0.00000E+00
 -1       164 3.93327E-02 1.68309E-01 0.00000E+00
 -1       165 6.21751E-02 1.74410E-01 0.00000E+00
 -1       166 4.58137E-02 1.91181E-01 0.00000E+00
 -1       167 3.30858E-02 1.46346E-01 0.00000E+00
 -1       168 5.58001E-02 1.49991E-01 0.00000E+00
 -1       169 5.03187E-02 8.23230E-01 4.75290E-01
 -1       170 5.85051E-02 7.69899E-01 4.44499E-01
 -1       171 5.23470E-02 2.54539E-01 1.46959E-01
 -1       172 3.39106E-02 1.91287E-01 1.10441E-01
 -1       173 2.36018E-02 1.38062E-01 7.97115E-02
 -1       174 1.22517E-02 1.07748E-01 6.22099E-02
 -1       175 1.79978E-02 9.75363E-02 5.63140E-02
 -1       176 4.80234E-02 9.77346E-02 5.64285E-02
 -1       177 8.06403E-02 9.74162E-02 5.62447E-02
 -1       178 7.04861E-02 1.96362E-01 1.13370E-01
 -1       179 6.76770E-02 1.71607E-01 9.90786E-02
 -1       180 6.29992E-02 1.42977E-01 8.25488E-02
 -1       181 8.66316E-02 1.08494E-01 6.26402E-02
 -1       182 7.51287E-02 1.24422E-01 7.18364E-02
 -1       183 5.66939E-02 2.94560E-01 1.70065E-01
 -1       184 4.36534E-02 2.18686E-01 1.26259E-01
 -1       185 3.05377E-02 1.63372E-01 9.43238E-02
 -1       186 1.77839E-02 1.22576E-01 7.07706E-02
 -1       187 3.31516E-02 9.68403E-02 5.59122E-02
 -1       188 6.33912E-02 9.76646E-02 5.63881E-02
 -1       189 4.24359E-02 1.24890E-01 7.21065E-02
 -1       190 2.71571E-02 1.08738E-01 6.27814E-02
 -1       191 7.21619E-02 1.07793E-01 6.22359E-02
 -1       192 4.14599E-02 1.07729E-01 6.21986E-02
 -1       193 5.65523E-02 1.11395E-01 6.43153E-02
 -1       194 1.59422E-02 9.85997E-02 1.63479E-02
 -1       195 4.65718E-02 9.82303E-02 1.85850E-02
 -1       196 8.41271E-02 9.83495E-02 1.78630E-02
 -1       197 1.58372E-02 9.34726E-02 3.53822E-02
 -1       198 3.06814E-02 9.16377E-02 3.99201E-02
 -1       199 4.38035E-02 9.29176E-02 3.68566E-02
 -1       200 5.97097E-02 9.36177E-02 3.49966E-02
 -1       201 7.56176E-02 9.36857E-02 3.48161E-02
 -1       202 8.88703E-02 9.41546E-02 3.35705E-02
 -1       203 3.13352E-02 9.91765E-02 1.27224E-02
 -1       204 6.59323E-02 9.83555E-02 1.78269E-02
 -1       205 3.04047E-02 9.62837E-02 2.68961E-02
 -1       206 0.00000E+00 9.59063E-01 4.03263E-02
 -1       207 0.00000E+00 9.51935E-01 8.01765E-02
 -1       208 0.00000E+00 9.43828E-01 1.27835E-01
 -1       209 0.00000E+00 9.29602E-01 1.86930E-01
 -1       210 0.00000E+00 9.15351E-01 2.47961E-01
 -1       211 0.00000E+00 8.96568E-01 3.10802E-01
 -1       212 0.00000E+00 8.85238E-01 3.66044E-01
 -1       213 0.00000E+00 8.70692E-01 4.12334E-01
 -1       214 0.00000E+00 1.07738E-01 8.25607E-03
 -1       215 0.00000E+00 1.21465E-01 1.29059E-02
 -1       216 0.00000E+00 1.82784E-01 2.45887E-02
 -1       217 0.00000E+00 2.10286E-01 3.02552E-02
 -1       218 0.00000E+00 2.37530E-01 3.48046E-02
 -1       219 0.00000E+00 2.74166E-01 3.94365E-02
 -1       220 0.00000E+00 3.07923E-01 4.12691E-02
 -1       221 0.00000E+00 4.07254E-01 4.81296E-02
 -1       222 0.00000E+00 4.77201E-01 5.02293E-02
 -1       223 0.00000E+00 5.57301E-01 5.41206E-02
 -1       224 0.00000E+00 6.47536E-01 6.47681E-02
 -1       225 0.00000E+00 7.23601E-01 6.23181E-02
 -1       226 0.00000E+00 7.93213E-01 5.86148E-02
 -1       227 0.00000E+00 8.68766E-01 4.71179E-02
 -1       228 0.00000E+00 9.16529E-01 4.33535E-02
 -1       229 0.00000E+00 8.31015E-01 4.32483E-01
 -1       230 0.00000E+00 7.91716E-01 4.02839E-01
 -1       231 0.00000E+00 7.37085E-01 3.62786E-01
 -1       232 0.00000E+00 6.65064E-01 3.08708E-01
 -1       233 0.00000E+00 5.89446E-01 2.62666E-01
 -1       234 0.00000E+00 5.11967E-01 2.29773E-01
 -1       235 0.00000E+00 4.45505E-01 1.91791E-01
 -1       236 0.00000E+00 3.78810E-01 1.56111E-01
 -1       237 0.00000E+00 3.24503E-01 1.32757E-01
 -1       238 0.00000E+00 2.88067E-01 1.19075E-01
 -1       239 0.00000E+00 2.54136E-01 1.05341E-01
 -1       240 0.00000E+00 2.09183E-01 6.85333E-02
 -1       241 0.00000E+00 1.45282E-01 6.17684E-02
 -1       242 0.00000E+00 1.29035E-01 5.87268E-02
 -1       243 0.00000E+00 1.18056E-01 4.86135E-02
 -1       244 0.00000E+00 1.05039E-01 3.64660E-02
 -1       245 0.00000E+00 1.09554E-01 2.16494E-02
 -1       246 0.00000E+00 3.50756E-01 4.47781E-02
 -1       247 0.00000E+00 1.74340E-01 6.95662E-02
 -1       248 0.00000E+00 9.05930E-01 8.77952E-02
 -1       249 0.00000E+00 8.83455E-01 1.48342E-01
 -1       250 0.00000E+00 8.72651E-01 2.06780E-01
 -1       251 0.00000E+00 8.58014E-01 2.64651E-01
 -1       252 0.00000E+00 8.47500E-01 3.25553E-01
 -1       253 0.00000E+00 8.40042E-01 3.81529E-01
 -1       254 0.00000E+00 4.48969E-01 1.18741E-01
 -1       255 0.00000E+00 1.22284E-01 2.93586E-02
 -1       256 0.00000E+00 1.37909E-01 1.71641E-02
 -1       257 0.00000E+00 1.57056E-01 2.06545E-02
 -1       258 0.00000E+00 2.81112E-01 7.52048E-02
 -1       259 0.00000E+00 2.43480E-01 7.18212E-02
 -1       260 0.00000E+00 5.00000E-01 1.00000E-01
 -1       261 0.00000E+00 6.09857E-01 1.25465E-01
 -1       262 0.00000E+00 6.95191E-01 1.31607E-01
 -1       263 0.00000E+00 7.68113E-01 1.19515E-01
 -1       264 0.00000E+00 8.34401E-01 1.03710E-01
 -1       265 0.00000E+00 1.62505E-01 4.38436E-02
 -1       266 0.00000E+00 7.32922E-01 2.83890E-01
 -1       267 0.00000E+00 6.62258E-01 2.13914E-01
 -1       268 0.00000E+00 3.26422E-01 8.74049E-02
 -1       269 0.00000E+00 3.78764E-01 9.99883E-02
 -1       270 0.00000E+00 1.89558E-01 4.88932E-02
 -1       271 0.00000E+00 7.89461E-01 3.37838E-01
 -1       272 0.00000E+00 1.37406E-01 3.96362E-02
 -1       273 0.00000E+00 5.01285E-01 1.67726E-01
 -1       274 0.00000E+00 5.71246E-01 1.85813E-01
 -1       275 0.00000E+00 8.17798E-01 2.20649E-01
 -1       276 0.00000E+00 7.95501E-01 2.74696E-01
 -1       277 0.00000E+00 7.51987E-01 1.99706E-01
 -1       278 0.00000E+00 8.23604E-01 1.65594E-01
 -1       279 1.00000E-01 9.68416E-01 4.55927E-02
 -1       280 1.00000E-01 9.51893E-01 1.25945E-01
 -1       281 1.00000E-01 9.13927E-01 2.25421E-01
 -1       282 1.00000E-01 8.94317E-01 3.43974E-01
 -1       283 1.00000E-01 8.61005E-01 4.37390E-01
 -1       284 1.00000E-01 1.11954E-01 1.51500E-02
 -1       285 1.00000E-01 1.56522E-01 1.82722E-02
 -1       286 1.00000E-01 2.06794E-01 2.71595E-02
 -1       287 1.00000E-01 2.69060E-01 3.54203E-02
 -1       288 1.00000E-01 3.44591E-01 4.11769E-02
 -1       289 1.00000E-01 4.37030E-01 4.80948E-02
 -1       290 1.00000E-01 5.77160E-01 7.32092E-02
 -1       291 1.00000E-01 7.46667E-01 6.26704E-02
 -1       292 1.00000E-01 8.69694E-01 4.39787E-02
 -1       293 1.00000E-01 9.42129E-01 2.85788E-02
 -1       294 1.00000E-01 8.24132E-01 4.37853E-01
 -1       295 1.00000E-01 7.60074E-01 3.77143E-01
 -1       296 1.00000E-01 6.26223E-01 2.75672E-01
 -1       297 1.00000E-01 4.70310E-01 1.93475E-01
 -1       298 1.00000E-01 3.49782E-01 1.38793E-01
 -1       299 1.00000E-01 2.53857E-01 1.03758E-01
 -1       300 1.00000E-01 1.85403E-01 7.55709E-02
 -1       301 1.00000E-01 1.30645E-01 5.46582E-02
 -1       302 1.00000E-01 1.14855E-01 5.05559E-02
 -1       303 1.00000E-01 1.07481E-01 3.74131E-02
 -1       304 1.00000E-01 9.63241E-01 8.02240E-02
 -1       305 1.00000E-01 9.35508E-01 1.62473E-01
 -1       306 1.00000E-01 9.00430E-01 2.89275E-01
 -1       307 1.00000E-01 8.79628E-01 3.95134E-01
 -1       308 1.00000E-01 1.36974E-01 1.77989E-02
 -1       309 1.00000E-01 1.77572E-01 2.08311E-02
 -1       310 1.00000E-01 2.36478E-01 3.16822E-02
 -1       311 1.00000E-01 3.07111E-01 3.66617E-02
 -1       312 1.00000E-01 3.84044E-01 4.44706E-02
 -1       313 1.00000E-01 5.03062E-01 6.19280E-02
 -1       314 1.00000E-01 6.60731E-01 7.21594E-02
 -1       315 1.00000E-01 8.08799E-01 5.63896E-02
 -1       316 1.00000E-01 9.06935E-01 3.52318E-02
 -1       317 1.00000E-01 7.91666E-01 4.07846E-01
 -1       318 1.00000E-01 6.98366E-01 3.25505E-01
 -1       319 1.00000E-01 5.48127E-01 2.27793E-01
 -1       320 1.00000E-01 4.05312E-01 1.65161E-01
 -1       321 1.00000E-01 3.01063E-01 1.09581E-01
 -1       322 1.00000E-01 2.14597E-01 8.79013E-02
 -1       323 1.00000E-01 1.58298E-01 6.30538E-02
 -1       324 1.00000E-01 2.82618E-01 6.69014E-02
 -1       325 1.00000E-01 1.45570E-01 3.86350E-02
 -1       326 1.00000E-01 1.87191E-01 4.94182E-02
 -1       327 1.00000E-01 9.00839E-01 1.26988E-01
 -1       328 1.00000E-01 7.71019E-01 2.89864E-01
 -1       329 1.00000E-01 8.17290E-01 3.66545E-01
 -1       330 1.00000E-01 3.55462E-01 9.04493E-02
 -1       331 1.00000E-01 4.64984E-01 1.20838E-01
 -1       332 1.00000E-01 5.33968E-01 1.38859E-01
 -1       333 1.00000E-01 7.18896E-01 1.43441E-01
 -1       334 1.00000E-01 8.65371E-01 9.45580E-02
 -1       335 1.00000E-01 1.25974E-01 3.55995E-02
 -1       336 1.00000E-01 6.23130E-01 1.65593E-01
 -1       337 1.00000E-01 8.52380E-01 2.52729E-01
 -1       338 1.00000E-01 8.38441E-01 4.00491E-01
 -1       339 1.00000E-01 2.10064E-01 5.52874E-02
 -1       340 1.00000E-01 8.55481E-01 3.66447E-01
 -1       341 1.00000E-01 4.06849E-01 1.05848E-01
 -1       342 1.00000E-01 9.37600E-01 5.88011E-02
 -1       343 1.00000E-01 1.66402E-01 3.89427E-02
 -1       344 1.00000E-01 2.45937E-01 6.51058E-02
 -1       345 1.00000E-01 3.19105E-01 7.31407E-02
 -1       346 1.00000E-01 8.59934E-01 1.70569E-01
 -1       347 1.00000E-01 7.93480E-01 1.24364E-01
 -1       348 1.00000E-01 8.98879E-01 7.58932E-02
 -1       349 1.00000E-01 7.01072E-01 2.34499E-01
 -1       350 1.00000E-01 9.31951E-01 9.23346E-02
 -1       351 1.00000E-01 8.49250E-01 3.19258E-01
 -1       352 1.00000E-01 7.82661E-01 2.02476E-01
 -1       353 4.65142E-02 9.29511E-01 5.80299E-02
 -1       354 5.62011E-02 8.57116E-01 1.24347E-01
 -1       355 4.23891E-02 8.53484E-01 4.06460E-02
 -1       356 6.26430E-02 9.18151E-01 1.33134E-01
 -1       357 4.85989E-02 9.24741E-01 1.89238E-01
 -1       358 4.65792E-02 8.56061E-01 2.26240E-01
 -1       359 5.14847E-02 8.52846E-01 2.95698E-01
 -1       360 5.09122E-02 9.63614E-01 5.64498E-02
 -1       361 2.64696E-02 9.67001E-01 7.88939E-02
 -1       362 5.45165E-02 8.68240E-01 3.63014E-01
 -1       363 5.83092E-02 8.18387E-01 3.68329E-01
 -1       364 7.08769E-02 9.33192E-01 4.90155E-02
 -1       365 5.21428E-02 9.64384E-01 8.87465E-02
 -1       366 4.43888E-02 2.53740E-01 8.40462E-02
 -1       367 3.56826E-02 3.15258E-01 6.14622E-02
 -1       368 5.53984E-02 3.42587E-01 8.76114E-02
 -1       369 8.54459E-02 1.67253E-01 1.85031E-02
 -1       370 8.54426E-02 1.28232E-01 1.63689E-02
 -1       371 5.12800E-02 1.66884E-01 3.91912E-02
 -1       372 2.12270E-02 1.85411E-01 6.79549E-02
 -1       373 5.27279E-02 1.91878E-01 6.22997E-02
 -1       374 7.79973E-02 1.90945E-01 2.09810E-02
 -1       375 4.54753E-02 1.26540E-01 1.81844E-02
 -1       376 1.61831E-02 1.37348E-01 3.28573E-02
 -1       377 1.76948E-02 1.63945E-01 2.32532E-02
 -1       378 5.20292E-02 1.84171E-01 2.24453E-02
 -1       379 4.81185E-02 2.08191E-01 2.57902E-02
 -1       380 6.38109E-02 2.50201E-01 3.88542E-02
 -1       381 1.80741E-02 2.19027E-01 2.10047E-02
 -1       382 2.16516E-02 2.11198E-01 4.96237E-02
 -1       383 8.27679E-02 2.22584E-01 5.23504E-02
 -1       384 6.97971E-02 2.86945E-01 7.07724E-02
 -1       385 6.46853E-02 2.25541E-01 8.45144E-02
 -1       386 6.08219E-02 2.19304E-01 5.09470E-02
 -1       387 2.18363E-02 1.17771E-01 1.64627E-02
 -1       388 1.35633E-02 1.31899E-01 1.40002E-02
 -1       389 7.64991E-02 2.22107E-01 2.42386E-02
 -1       390 6.40896E-02 2.88072E-01 3.14379E-02
 -1       391 6.84306E-02 3.17703E-01 2.65414E-02
 -1       392 2.77181E-02 2.67192E-01 2.53797E-02
 -1       393 3.05474E-02 2.98897E-01 2.65666E-02
 -1       394 2.87648E-02 2.73563E-01 5.28061E-02
 -1       395 3.47996E-02 2.35868E-01 5.09253E-02
 -1       396 2.70425E-02 2.18819E-01 8.73325E-02
 -1       397 3.91435E-02 2.91166E-01 1.00278E-01
 -1       398 1.90766E-02 1.10697E-01 4.06036E-02
 -1       399 3.67041E-02 1.30332E-01 3.75203E-02
 -1       400 5.77514E-02 1.14167E-01 1.98661E-02
 -1       401 7.44773E-02 1.15293E-01 1.34859E-02
 -1       402 3.92895E-02 1.11293E-01 1.41157E-02
 -1       403 5.07645E-02 1.45579E-01 1.78825E-02
 -1       404 5.53427E-02 1.08129E-01 4.46782E-02
 -1       405 6.83816E-02 1.36472E-01 1.78524E-02
 -1       406 7.97298E-02 1.29539E-01 4.41840E-02
 -1       407 5.54388E-02 1.24890E-01 5.43081E-02
 -1       408 7.16562E-02 3.20615E-01 5.26337E-02
 -1       409 7.64207E-02 1.12031E-01 3.72011E-02
 -1       410 2.91672E-02 1.41289E-01 1.60716E-02
 -1       411 3.93205E-02 1.10258E-01 3.92441E-02
 -1       412 1.30338E-02 1.47675E-01 1.46420E-02
 -1       413 4.05371E-02 1.45915E-01 3.25168E-02
 -1       414 3.31268E-02 1.40073E-01 5.35144E-02
 -1       415 5.42809E-02 1.47718E-01 5.24599E-02
 -1       416 1.34482E-02 1.35075E-01 5.59888E-02
 -1       417 2.81126E-02 1.60352E-01 4.60463E-02
 -1       418 2.94100E-02 1.82377E-01 4.03028E-02
 -1       419 2.93345E-02 1.24074E-01 5.56400E-02
 -1       420 7.73294E-02 9.69819E-01 2.64898E-02
 -1       421 3.56208E-02 9.38370E-01 2.87198E-02
 -1       422 6.44132E-02 8.98002E-01 3.82422E-02
 -1       423 8.49570E-02 1.47385E-01 2.23198E-02
 -1       424 6.49563E-02 1.64363E-01 1.68552E-02
 -1       425 1.78764E-02 1.57361E-01 6.59790E-02
 -1       426 4.19789E-02 1.61347E-01 6.58951E-02
 -1       427 2.32291E-02 1.98569E-01 2.17186E-02
 -1       428 4.13477E-02 3.46980E-01 3.32309E-02
 -1       429 8.03525E-02 1.47491E-01 6.09305E-02
 -1       430 8.67781E-02 1.69958E-01 6.77528E-02
 -1       431 7.02802E-02 1.72087E-01 5.93509E-02
 -1       432 8.37224E-02 1.85761E-01 5.84562E-02
 -1       433 7.70048E-02 2.04545E-01 6.72035E-02
 -1       434 8.14668E-02 1.87853E-01 8.11062E-02
 -1       435 7.04699E-02 1.53286E-01 3.74139E-02
 -1       436 7.41930E-02 1.77716E-01 3.65701E-02
 -1       437 7.54329E-02 2.00003E-01 4.45144E-02
 -1       438 3.92449E-02 1.62401E-01 1.97539E-02
 -1       439 3.16645E-02 1.78923E-01 1.63855E-02
 -1       440 7.92115E-02 9.69036E-01 5.53440E-02
 -1       441 7.70171E-02 9.63070E-01 8.25568E-02
 -1       442 4.33088E-02 8.55282E-01 4.12554E-01
 -1       443 5.28368E-02 9.39700E-01 8.14225E-02
 -1       444 3.00153E-02 9.25258E-01 7.59733E-02
 -1       445 3.51427E-02 9.44145E-01 1.05060E-01
 -1       446 6.66158E-02 9.55492E-01 1.23344E-01
 -1       447 3.76297E-02 9.07977E-01 1.07809E-01
 -1       448 3.46113E-02 9.46587E-01 1.41105E-01
 -1       449 5.76516E-02 9.12540E-01 7.45562E-02
 -1       450 6.41586E-02 8.67586E-01 7.82206E-02
 -1       451 2.98144E-02 8.83987E-01 8.47813E-02
 -1       452 7.16466E-02 9.08451E-01 1.09283E-01
 -1       453 4.95748E-02 9.70293E-01 2.42585E-02
 -1       454 2.47651E-02 9.71527E-01 3.63845E-02
 -1       455 2.83166E-02 9.42050E-01 5.78465E-02
 -1       456 3.29159E-02 9.03161E-01 4.95123E-02
 -1       457 2.58410E-02 8.86392E-01 3.90942E-01
 -1       458 5.63254E-02 1.29831E-01 3.46576E-02
 -1       459 4.33758E-02 6.08382E-01 4.22900E-02
 -1       460 1.54874E-02 1.00000E+00 0.00000E+00
 -1       461 4.78549E-02 1.00000E+00 0.00000E+00
 -1       462 8.23675E-02 1.00000E+00 0.00000E+00
 -1       463 0.00000E+00 9.99719E-01 1.71847E-02
 -1       464 0.00000E+00 9.98399E-01 5.44170E-02
 -1       465 0.00000E+00 9.95306E-01 9.65474E-02
 -1       466 0.00000E+00 9.89658E-01 1.42577E-01
 -1       467 0.00000E+00 9.80536E-01 1.96250E-01
 -1       468 0.00000E+00 9.65843E-01 2.59116E-01
 -1       469 0.00000E+00 9.47174E-01 3.20688E-01
 -1       470 0.00000E+00 9.27783E-01 3.72813E-01
 -1       471 0.00000E+00 9.09649E-01 4.15284E-01
 -1       472 0.00000E+00 8.92070E-01 4.51646E-01
 -1       473 0.00000E+00 8.74560E-01 4.84651E-01
 -1       474 1.54874E-02 8.66030E-01 5.00000E-01
 -1       475 4.78549E-02 8.66030E-01 5.00000E-01
 -1       476 8.23675E-02 8.66030E-01 5.00000E-01
 -1       477 1.00000E-01 9.99731E-01 1.64303E-02
 -1       478 1.00000E-01 9.98579E-01 5.07539E-02
 -1       479 1.00000E-01 9.95967E-01 8.84853E-02
 -1       480 1.00000E-01 9.91336E-01 1.31269E-01
 -1       481 1.00000E-01 9.83292E-01 1.81320E-01
 -1       482 1.00000E-01 9.71207E-01 2.37744E-01
 -1       483 1.00000E-01 9.54415E-01 2.98152E-01
 -1       484 1.00000E-01 9.33998E-01 3.57084E-01
 -1       485 1.00000E-01 9.12041E-01 4.09999E-01
 -1       486 1.00000E-01 8.91360E-01 4.53029E-01
 -1       487 1.00000E-01 8.74072E-01 4.85528E-01
 -1       488 6.04201E-03 1.00000E-01 0.00000E+00
 -1       489 1.84764E-02 1.00000E-01 0.00000E+00
 -1       490 3.18874E-02 1.00000E-01 0.00000E+00
 -1       491 4.66178E-02 1.00000E-01 0.00000E+00
 -1       492 6.27682E-02 1.00000E-01 0.00000E+00
 -1       493 7.92103E-02 1.00000E-01 0.00000E+00
 -1       494 9.36068E-02 1.00000E-01 0.00000E+00
 -1       495 0.00000E+00 1.06499E-01 0.00000E+00
 -1       496 0.00000E+00 1.20596E-01 0.00000E+00
 -1       497 0.00000E+00 1.37219E-01 0.00000E+00
 -1       498 0.00000E+00 1.59893E-01 0.00000E+00
 -1       499 0.00000E+00 1.86243E-01 0.00000E+00
 -1       500 0.00000E+00 2.12597E-01 0.00000E+00
 -1       501 0.00000E+00 2.44253E-01 0.00000E+00
 -1       502 0.00000E+00 2.79445E-01 0.00000E+00
 -1       503 0.00000E+00 3.16346E-01 0.00000E+00
 -1       504 0.00000E+00 3.59178E-01 0.00000E+00
 -1       505 0.00000E+00 4.10150E-01 0.00000E+00
 -1       506 0.00000E+00 4.78626E-01 0.00000E+00
 -1       507 0.00000E+00 5.56489E-01 0.00000E+00
 -1       508 0.00000E+00 6.36116E-01 0.00000E+00
 -1       509 0.00000E+00 7.16221E-01 0.00000E+00
 -1       510 0.00000E+00 7.93555E-01 0.00000E+00
 -1       511 0.00000E+00 8.57381E-01 0.00000E+00
 -1       512 0.00000E+00 9.05132E-01 0.00000E+00
 -1       513 0.00000E+00 9.48960E-01 0.00000E+00
 -1       514 0.00000E+00 9.84623E-01 0.00000E+00
 -1       515 1.00000E-01 1.06696E-01 0.00000E+00
 -1       516 1.00000E-01 1.20884E-01 0.00000E+00
 -1       517 1.00000E-01 1.37967E-01 0.00000E+00
 -1       518 1.00000E-01 1.58818E-01 0.00000E+00
 -1       519 1.00000E-01 1.79045E-01 0.00000E+00
 -1       520 1.00000E-01 2.01293E-01 0.00000E+00
 -1       521 1.00000E-01 2.34836E-01 0.00000E+00
 -1       522 1.00000E-01 2.73961E-01 0.00000E+00
 -1       523 1.00000E-01 3.11764E-01 0.00000E+00
 -1       524 1.00000E-01 3.49723E-01 0.00000E+00
 -1       525 1.00000E-01 3.91743E-01 0.00000E+00
 -1       526 1.00000E-01 4.42574E-01 0.00000E+00
 -1       527 1.00000E-01 5.04062E-01 0.00000E+00
 -1       528 1.00000E-01 5.76783E-01 0.00000E+00
 -1       529 1.00000E-01 6.56382E-01 0.00000E+00
 -1       530 1.00000E-01 7.35229E-01 0.00000E+00
 -1       531 1.00000E-01 8.05081E-01 0.00000E+00
 -1       532 1.00000E-01 8.62138E-01 0.00000E+00
 -1       533 1.00000E-01 9.08397E-01 0.00000E+00
 -1       534 1.00000E-01 9.47701E-01 0.00000E+00
 -1       535 1.00000E-01 9.83130E-01 0.00000E+00
 -1       536 0.00000E+00 8.47275E-01 4.89172E-01
 -1       537 0.00000E+00 8.08631E-01 4.66861E-01
 -1       538 0.00000E+00 7.63127E-01 4.40590E-01
 -1       539 0.00000E+00 7.03080E-01 4.05922E-01
 -1       540 0.00000E+00 6.32694E-01 3.65285E-01
 -1       541 0.00000E+00 5.58495E-01 3.22446E-01
 -1       542 0.00000E+00 4.83986E-01 2.79429E-01
 -1       543 0.00000E+00 4.15560E-01 2.39923E-01
 -1       544 0.00000E+00 3.55869E-01 2.05461E-01
 -1       545 0.00000E+00 3.04432E-01 1.75764E-01
 -1       546 0.00000E+00 2.62149E-01 1.51352E-01
 -1       547 0.00000E+00 2.26044E-01 1.30507E-01
 -1       548 0.00000E+00 1.93678E-01 1.11821E-01
 -1       549 0.00000E+00 1.64209E-01 9.48072E-02
 -1       550 0.00000E+00 1.40523E-01 8.11321E-02
 -1       551 0.00000E+00 1.22630E-01 7.08020E-02
 -1       552 0.00000E+00 1.05724E-01 6.10412E-02
 -1       553 0.00000E+00 9.22273E-02 5.32489E-02
 -1       554 6.04203E-03 8.66000E-02 5.00000E-02
 -1       555 1.84764E-02 8.66000E-02 5.00000E-02
 -1       556 3.18875E-02 8.66000E-02 5.00000E-02
 -1       557 4.66178E-02 8.66000E-02 5.00000E-02
 -1       558 6.27682E-02 8.66000E-02 5.00000E-02
 -1       559 7.92102E-02 8.66000E-02 5.00000E-02
 -1       560 9.36068E-02 8.66000E-02 5.00000E-02
 -1       561 1.00000E-01 8.49567E-01 4.90495E-01
 -1       562 1.00000E-01 8.13369E-01 4.69596E-01
 -1       563 1.00000E-01 7.75101E-01 4.47503E-01
 -1       564 1.00000E-01 7.27143E-01 4.19814E-01
 -1       565 1.00000E-01 6.63044E-01 3.82807E-01
 -1       566 1.00000E-01 5.90157E-01 3.40726E-01
 -1       567 1.00000E-01 5.14317E-01 2.96940E-01
 -1       568 1.00000E-01 4.43612E-01 2.56119E-01
 -1       569 1.00000E-01 3.82278E-01 2.20708E-01
 -1       570 1.00000E-01 3.25457E-01 1.87903E-01
 -1       571 1.00000E-01 2.77147E-01 1.60011E-01
 -1       572 1.00000E-01 2.36932E-01 1.36793E-01
 -1       573 1.00000E-01 2.00771E-01 1.15916E-01
 -1       574 1.00000E-01 1.71014E-01 9.87359E-02
 -1       575 1.00000E-01 1.44909E-01 8.36645E-02
 -1       576 1.00000E-01 1.24083E-01 7.16403E-02
 -1       577 1.00000E-01 1.07069E-01 6.18177E-02
 -1       578 1.00000E-01 9.27218E-02 5.35344E-02
 -1       579 0.00000E+00 8.94411E-02 4.46854E-02
 -1       580 0.00000E+00 9.46416E-02 3.22766E-02
 -1       581 0.00000E+00 9.82990E-02 1.81688E-02
 -1       582 0.00000E+00 9.98178E-02 5.55843E-03