    1C
    1UModel: segment                                                    
    1UUSER                                                              
    1UDATE              22.april.2025                                   
    1UTIME              15:46:09                                        
    1UHOST                                                              
    1UPGM               CalculiX                                        
    1UVERSION           Version DEVELOPMENT                             
    1UCOMPILETIME       Mon Apr 21 14:04:07 CEST 2025                    
    1UDIR                                                               
    1UDBN                                                               
    1UMAT    1EL                                                        
    2C                          2756                                     1
 -1         1 0.00000E+00 1.00000E+00 0.00000E+00
 -1         2 3.09749E-02 1.00000E+00 0.00000E+00
 -1         3 6.47350E-02 1.00000E+00 0.00000E+00
 -1         4 1.00000E-01 1.00000E+00 0.00000E+00
 -1        15 0.00000E+00 8.66030E-01 5.00000E-01
 -1        16 3.09749E-02 8.66030E-01 5.00000E-01
 -1        17 6.47350E-02 8.66030E-01 5.00000E-01
 -1        18 1.00000E-01 8.66030E-01 5.00000E-01
 -1        29 0.00000E+00 1.00000E-01 0.00000E+00
 -1        30 1.20840E-02 1.00000E-01 0.00000E+00
 -1        31 2.48687E-02 1.00000E-01 0.00000E+00
 -1        32 3.89061E-02 1.00000E-01 0.00000E+00
 -1        33 5.43294E-02 1.00000E-01 0.00000E+00
 -1        34 7.12070E-02 1.00000E-01 0.00000E+00
 -1        35 8.72135E-02 1.00000E-01 0.00000E+00
 -1        36 1.00000E-01 1.00000E-01 0.00000E+00
 -1        37 0.00000E+00 1.12997E-01 0.00000E+00
 -1        38 0.00000E+00 1.29459E-01 0.00000E+00
 -1        39 0.00000E+00 1.48522E-01 0.00000E+00
 -1        40 0.00000E+00 1.73543E-01 0.00000E+00
 -1        41 0.00000E+00 1.98943E-01 0.00000E+00
 -1        42 0.00000E+00 2.29080E-01 0.00000E+00
 -1        43 0.00000E+00 2.62256E-01 0.00000E+00
 -1        44 0.00000E+00 2.98859E-01 0.00000E+00
 -1        45 0.00000E+00 3.39538E-01 0.00000E+00
 -1        46 0.00000E+00 3.92784E-01 0.00000E+00
 -1        47 0.00000E+00 4.52977E-01 0.00000E+00
 -1        48 0.00000E+00 5.19249E-01 0.00000E+00
 -1        49 0.00000E+00 5.96912E-01 0.00000E+00
 -1        50 0.00000E+00 6.78503E-01 0.00000E+00
 -1        51 0.00000E+00 7.53938E-01 0.00000E+00
 -1        52 0.00000E+00 8.22855E-01 0.00000E+00
 -1        53 0.00000E+00 8.81590E-01 0.00000E+00
 -1        54 0.00000E+00 9.28674E-01 0.00000E+00
 -1        55 0.00000E+00 9.67222E-01 0.00000E+00
 -1        56 1.00000E-01 1.13392E-01 0.00000E+00
 -1        57 1.00000E-01 1.30478E-01 0.00000E+00
 -1        58 1.00000E-01 1.49391E-01 0.00000E+00
 -1        59 1.00000E-01 1.70077E-01 0.00000E+00
 -1        60 1.00000E-01 1.94603E-01 0.00000E+00
 -1        61 1.00000E-01 2.21951E-01 0.00000E+00
 -1        62 1.00000E-01 2.55101E-01 0.00000E+00
 -1        63 1.00000E-01 2.92242E-01 0.00000E+00
 -1        64 1.00000E-01 3.31269E-01 0.00000E+00
 -1        65 1.00000E-01 3.73242E-01 0.00000E+00
 -1        66 1.00000E-01 4.19326E-01 0.00000E+00
 -1        67 1.00000E-01 4.70400E-01 0.00000E+00
 -1        68 1.00000E-01 5.37724E-01 0.00000E+00
 -1        69 1.00000E-01 6.13650E-01 0.00000E+00
 -1        70 1.00000E-01 6.94026E-01 0.00000E+00
 -1        71 1.00000E-01 7.73537E-01 0.00000E+00
 -1        72 1.00000E-01 8.36624E-01 0.00000E+00
 -1        73 1.00000E-01 8.87652E-01 0.00000E+00
 -1        74 1.00000E-01 9.29143E-01 0.00000E+00
 -1        75 1.00000E-01 9.66236E-01 0.00000E+00
 -1        76 0.00000E+00 8.28519E-01 4.78343E-01
 -1        77 0.00000E+00 7.83149E-01 4.52149E-01
 -1        78 0.00000E+00 7.28275E-01 4.20468E-01
 -1        79 0.00000E+00 6.68649E-01 3.86043E-01
 -1        80 0.00000E+00 5.98684E-01 3.45649E-01
 -1        81 0.00000E+00 5.20251E-01 3.00366E-01
 -1        82 0.00000E+00 4.45874E-01 2.57425E-01
 -1        83 0.00000E+00 3.83400E-01 2.21356E-01
 -1        84 0.00000E+00 3.28338E-01 1.89566E-01
 -1        85 0.00000E+00 2.83230E-01 1.63523E-01
 -1        86 0.00000E+00 2.43400E-01 1.40528E-01
 -1        87 0.00000E+00 2.10694E-01 1.21645E-01
 -1        88 0.00000E+00 1.81415E-01 1.04741E-01
 -1        89 0.00000E+00 1.54969E-01 8.94724E-02
 -1        90 0.00000E+00 1.31667E-01 7.60194E-02
 -1        91 0.00000E+00 1.13594E-01 6.55847E-02
 -1        92 0.00000E+00 9.85603E-02 5.69052E-02
 -1        93 0.00000E+00 8.66000E-02 5.00000E-02
 -1        94 1.20841E-02 8.66000E-02 5.00000E-02
 -1        95 2.48688E-02 8.66000E-02 5.00000E-02
 -1        96 3.89062E-02 8.66000E-02 5.00000E-02
 -1        97 5.43295E-02 8.66000E-02 5.00000E-02
 -1        98 7.12070E-02 8.66000E-02 5.00000E-02
 -1        99 8.72135E-02 8.66000E-02 5.00000E-02
 -1       100 1.00000E-01 8.66000E-02 5.00000E-02
 -1       101 1.00000E-01 8.33104E-01 4.80990E-01
 -1       102 1.00000E-01 7.94878E-01 4.58921E-01
 -1       103 1.00000E-01 7.46483E-01 4.30980E-01
 -1       104 1.00000E-01 6.91114E-01 3.99013E-01
 -1       105 1.00000E-01 6.28350E-01 3.62777E-01
 -1       106 1.00000E-01 5.48458E-01 3.16651E-01
 -1       107 1.00000E-01 4.77314E-01 2.75577E-01
 -1       108 1.00000E-01 4.15142E-01 2.39682E-01
 -1       109 1.00000E-01 3.59835E-01 2.07751E-01
 -1       110 1.00000E-01 3.08775E-01 1.78271E-01
 -1       111 1.00000E-01 2.57400E-01 1.48611E-01
 -1       112 1.00000E-01 2.16463E-01 1.24976E-01
 -1       113 1.00000E-01 1.85080E-01 1.06857E-01
 -1       114 1.00000E-01 1.58321E-01 9.14077E-02
 -1       115 1.00000E-01 1.34124E-01 7.74379E-02
 -1       116 1.00000E-01 1.15295E-01 6.65666E-02
 -1       117 1.00000E-01 9.88436E-02 5.70688E-02
 -1       118 0.00000E+00 9.19589E-02 3.92114E-02
 -1       119 0.00000E+00 9.67622E-02 2.51496E-02
 -1       120 0.00000E+00 9.93366E-02 1.10972E-02
 -1       121 1.00000E-01 9.21188E-02 3.88584E-02
 -1       122 1.00000E-01 9.65155E-02 2.61324E-02
 -1       123 1.00000E-01 9.91684E-02 1.28039E-02
 -1       132 3.38891E-02 9.59974E-01 0.00000E+00
 -1       133 1.85157E-02 1.12322E-01 0.00000E+00
 -1       134 3.30458E-02 1.13867E-01 0.00000E+00
 -1       135 4.86399E-02 1.14229E-01 0.00000E+00
 -1       136 6.41829E-02 1.12997E-01 0.00000E+00
 -1       137 8.08765E-02 1.11617E-01 0.00000E+00
 -1       138 1.53376E-02 1.40511E-01 0.00000E+00
 -1       139 2.23861E-02 1.84239E-01 0.00000E+00
 -1       140 2.71927E-02 2.42529E-01 0.00000E+00
 -1       141 4.87127E-02 3.16410E-01 0.00000E+00
 -1       142 5.04118E-02 4.11366E-01 0.00000E+00
 -1       143 4.92336E-02 8.64624E-01 0.00000E+00
 -1       144 8.78609E-02 1.23464E-01 0.00000E+00
 -1       145 7.98404E-02 1.39967E-01 0.00000E+00
 -1       146 7.98019E-02 1.60244E-01 0.00000E+00
 -1       147 8.30344E-02 1.80870E-01 0.00000E+00
 -1       148 7.33167E-02 1.99935E-01 0.00000E+00
 -1       149 4.85995E-02 2.72238E-01 0.00000E+00
 -1       150 6.64478E-02 9.47839E-01 0.00000E+00
 -1       151 1.22489E-02 1.24435E-01 0.00000E+00
 -1       152 1.86562E-02 1.60404E-01 0.00000E+00
 -1       153 2.57254E-02 2.12126E-01 0.00000E+00
 -1       154 5.08221E-02 3.60560E-01 0.00000E+00
 -1       155 5.22991E-02 4.70638E-01 0.00000E+00
 -1       156 3.43291E-02 9.15371E-01 0.00000E+00
 -1       157 5.94742E-02 2.29090E-01 0.00000E+00
 -1       158 5.12927E-02 8.10235E-01 0.00000E+00
 -1       159 7.00955E-02 9.09319E-01 0.00000E+00
 -1       160 2.67122E-02 1.28142E-01 0.00000E+00
 -1       161 4.23831E-02 1.30712E-01 0.00000E+00
 -1       162 5.98897E-02 1.29921E-01 0.00000E+00
 -1       163 7.39101E-02 1.23776E-01 0.00000E+00
 -1       164 3.93327E-02 1.68309E-01 0.00000E+00
 -1       165 6.12331E-02 1.74975E-01 0.00000E+00
 -1       166 4.60043E-02 1.93927E-01 0.00000E+00
 -1       167 3.30858E-02 1.46346E-01 0.00000E+00
 -1       168 5.58001E-02 1.49991E-01 0.00000E+00
 -1       169 4.90860E-02 8.20069E-01 4.73465E-01
 -1       170 5.11233E-02 7.60481E-01 4.39062E-01
 -1       171 5.23470E-02 2.54539E-01 1.46959E-01
 -1       172 3.39106E-02 1.91287E-01 1.10441E-01
 -1       173 2.51952E-02 1.41868E-01 8.19087E-02
 -1       174 1.24813E-02 1.08466E-01 6.26242E-02
 -1       175 1.79978E-02 9.75363E-02 5.63140E-02
 -1       176 4.80234E-02 9.77346E-02 5.64285E-02
 -1       177 8.06403E-02 9.74162E-02 5.62447E-02
 -1       178 7.03877E-02 1.97970E-01 1.14299E-01
 -1       179 6.77761E-02 1.72585E-01 9.96427E-02
 -1       180 6.36095E-02 1.46276E-01 8.44534E-02
 -1       181 8.66316E-02 1.08494E-01 6.26402E-02
 -1       182 7.51287E-02 1.24422E-01 7.18364E-02
 -1       183 5.36681E-02 3.00944E-01 1.73750E-01
 -1       184 4.44775E-02 2.21252E-01 1.27740E-01
 -1       185 3.04287E-02 1.64559E-01 9.50092E-02
 -1       186 1.77839E-02 1.22576E-01 7.07706E-02
 -1       187 3.27859E-02 9.73571E-02 5.62105E-02
 -1       188 6.33912E-02 9.76646E-02 5.63881E-02
 -1       189 4.24359E-02 1.24890E-01 7.21065E-02
 -1       190 2.67108E-02 1.10694E-01 6.39105E-02
 -1       191 7.21619E-02 1.07793E-01 6.22359E-02
 -1       192 4.14049E-02 1.08936E-01 6.28953E-02
 -1       193 5.65523E-02 1.11395E-01 6.43153E-02
 -1       194 1.59422E-02 9.85997E-02 1.63479E-02
 -1       195 4.65718E-02 9.82303E-02 1.85850E-02
 -1       196 8.41271E-02 9.83495E-02 1.78630E-02
 -1       197 1.58372E-02 9.34726E-02 3.53822E-02
 -1       198 3.06814E-02 9.16377E-02 3.99201E-02
 -1       199 4.38035E-02 9.29176E-02 3.68566E-02
 -1       200 5.97097E-02 9.36177E-02 3.49966E-02
 -1       201 7.56176E-02 9.36857E-02 3.48161E-02
 -1       202 8.88703E-02 9.41546E-02 3.35705E-02
 -1       203 3.13352E-02 9.91765E-02 1.27224E-02
 -1       204 6.59323E-02 9.83555E-02 1.78269E-02
 -1       205 3.04047E-02 9.62837E-02 2.68961E-02
 -1       260 0.00000E+00 5.00000E-01 1.00000E-01
 -1       460 1.54874E-02 1.00000E+00 0.00000E+00
 -1       461 4.78549E-02 1.00000E+00 0.00000E+00
 -1       462 8.23675E-02 1.00000E+00 0.00000E+00
 -1       474 1.54874E-02 8.66030E-01 5.00000E-01
 -1       475 4.78549E-02 8.66030E-01 5.00000E-01
 -1       476 8.23675E-02 8.66030E-01 5.00000E-01
 -1       488 6.04201E-03 1.00000E-01 0.00000E+00
 -1       489 1.84764E-02 1.00000E-01 0.00000E+00
 -1       490 3.18874E-02 1.00000E-01 0.00000E+00
 -1       491 4.66178E-02 1.00000E-01 0.00000E+00
 -1       492 6.27682E-02 1.00000E-01 0.00000E+00
 -1       493 7.92103E-02 1.00000E-01 0.00000E+00
 -1       494 9.36068E-02 1.00000E-01 0.00000E+00
 -1       495 0.00000E+00 1.06499E-01 0.00000E+00
 -1       496 0.00000E+00 1.21228E-01 0.00000E+00
 -1       497 0.00000E+00 1.38990E-01 0.00000E+00
 -1       498 0.00000E+00 1.61032E-01 0.00000E+00
 -1       499 0.00000E+00 1.86243E-01 0.00000E+00
 -1       500 0.00000E+00 2.14011E-01 0.00000E+00
 -1       501 0.00000E+00 2.45668E-01 0.00000E+00
 -1       502 0.00000E+00 2.80557E-01 0.00000E+00
 -1       503 0.00000E+00 3.19198E-01 0.00000E+00
 -1       504 0.00000E+00 3.66161E-01 0.00000E+00
 -1       505 0.00000E+00 4.22881E-01 0.00000E+00
 -1       506 0.00000E+00 4.86113E-01 0.00000E+00
 -1       507 0.00000E+00 5.58081E-01 0.00000E+00
 -1       508 0.00000E+00 6.37708E-01 0.00000E+00
 -1       509 0.00000E+00 7.16221E-01 0.00000E+00
 -1       510 0.00000E+00 7.88396E-01 0.00000E+00
 -1       511 0.00000E+00 8.52222E-01 0.00000E+00
 -1       512 0.00000E+00 9.05132E-01 0.00000E+00
 -1       513 0.00000E+00 9.47948E-01 0.00000E+00
 -1       514 0.00000E+00 9.83611E-01 0.00000E+00
 -1       515 1.00000E-01 1.06696E-01 0.00000E+00
 -1       516 1.00000E-01 1.21935E-01 0.00000E+00
 -1       517 1.00000E-01 1.39935E-01 0.00000E+00
 -1       518 1.00000E-01 1.59734E-01 0.00000E+00
 -1       519 1.00000E-01 1.82340E-01 0.00000E+00
 -1       520 1.00000E-01 2.08277E-01 0.00000E+00
 -1       521 1.00000E-01 2.38526E-01 0.00000E+00
 -1       522 1.00000E-01 2.73671E-01 0.00000E+00
 -1       523 1.00000E-01 3.11756E-01 0.00000E+00
 -1       524 1.00000E-01 3.52255E-01 0.00000E+00
 -1       525 1.00000E-01 3.96284E-01 0.00000E+00
 -1       526 1.00000E-01 4.44863E-01 0.00000E+00
 -1       527 1.00000E-01 5.04062E-01 0.00000E+00
 -1       528 1.00000E-01 5.75687E-01 0.00000E+00
 -1       529 1.00000E-01 6.53838E-01 0.00000E+00
 -1       530 1.00000E-01 7.33782E-01 0.00000E+00
 -1       531 1.00000E-01 8.05081E-01 0.00000E+00
 -1       532 1.00000E-01 8.62138E-01 0.00000E+00
 -1       533 1.00000E-01 9.08397E-01 0.00000E+00
 -1       534 1.00000E-01 9.47689E-01 0.00000E+00
 -1       535 1.00000E-01 9.83118E-01 0.00000E+00
 -1       536 0.00000E+00 8.47275E-01 4.89172E-01
 -1       537 0.00000E+00 8.05834E-01 4.65246E-01
 -1       538 0.00000E+00 7.55712E-01 4.36309E-01
 -1       539 0.00000E+00 6.98462E-01 4.03255E-01
 -1       540 0.00000E+00 6.33666E-01 3.65846E-01
 -1       541 0.00000E+00 5.59468E-01 3.23008E-01
 -1       542 0.00000E+00 4.83063E-01 2.78896E-01
 -1       543 0.00000E+00 4.14637E-01 2.39391E-01
 -1       544 0.00000E+00 3.55869E-01 2.05461E-01
 -1       545 0.00000E+00 3.05784E-01 1.76545E-01
 -1       546 0.00000E+00 2.63315E-01 1.52026E-01
 -1       547 0.00000E+00 2.27047E-01 1.31086E-01
 -1       548 0.00000E+00 1.96055E-01 1.13193E-01
 -1       549 0.00000E+00 1.68192E-01 9.71067E-02
 -1       550 0.00000E+00 1.43318E-01 8.27459E-02
 -1       551 0.00000E+00 1.22630E-01 7.08020E-02
 -1       552 0.00000E+00 1.06077E-01 6.12449E-02
 -1       553 0.00000E+00 9.25801E-02 5.34526E-02
 -1       554 6.04203E-03 8.66000E-02 5.00000E-02
 -1       555 1.84764E-02 8.66000E-02 5.00000E-02
 -1       556 3.18875E-02 8.66000E-02 5.00000E-02
 -1       557 4.66178E-02 8.66000E-02 5.00000E-02
 -1       558 6.27682E-02 8.66000E-02 5.00000E-02
 -1       559 7.92102E-02 8.66000E-02 5.00000E-02
 -1       560 9.36068E-02 8.66000E-02 5.00000E-02
 -1       561 1.00000E-01 8.49567E-01 4.90495E-01
 -1       562 1.00000E-01 8.13991E-01 4.69956E-01
 -1       563 1.00000E-01 7.70680E-01 4.44950E-01
 -1       564 1.00000E-01 7.18798E-01 4.14996E-01
 -1       565 1.00000E-01 6.59732E-01 3.80895E-01
 -1       566 1.00000E-01 5.88404E-01 3.39714E-01
 -1       567 1.00000E-01 5.12886E-01 2.96114E-01
 -1       568 1.00000E-01 4.46228E-01 2.57629E-01
 -1       569 1.00000E-01 3.87488E-01 2.23716E-01
 -1       570 1.00000E-01 3.34305E-01 1.93011E-01
 -1       571 1.00000E-01 2.83088E-01 1.63441E-01
 -1       572 1.00000E-01 2.36932E-01 1.36793E-01
 -1       573 1.00000E-01 2.00771E-01 1.15916E-01
 -1       574 1.00000E-01 1.71700E-01 9.91322E-02
 -1       575 1.00000E-01 1.46223E-01 8.44228E-02
 -1       576 1.00000E-01 1.24709E-01 7.20023E-02
 -1       577 1.00000E-01 1.07069E-01 6.18177E-02
 -1       578 1.00000E-01 9.27218E-02 5.35344E-02
 -1       579 0.00000E+00 8.94411E-02 4.46854E-02
 -1       580 0.00000E+00 9.46416E-02 3.22766E-02
 -1       581 0.00000E+00 9.82990E-02 1.81688E-02
 -1       582 0.00000E+00 9.98178E-02 5.55843E-03
 -1       583 1.00000E-01 8.95324E-02 4.45145E-02
 -1       584 1.00000E-01 9.45313E-02 3.25696E-02
 -1       585 1.00000E-01 9.80763E-02 1.95148E-02
 -1       586 1.00000E-01 9.97897E-02 6.41542E-03
 -1       636 1.54874E-02 9.83611E-01 0.00000E+00
 -1       637 4.93121E-02 9.79987E-01 0.00000E+00
 -1       638 3.24320E-02 9.79987E-01 0.00000E+00
 -1       639 8.23675E-02 9.83118E-01 0.00000E+00
 -1       640 6.04201E-03 1.06499E-01 0.00000E+00
 -1       641 1.52999E-02 1.06161E-01 0.00000E+00
 -1       642 2.16922E-02 1.06161E-01 0.00000E+00
 -1       643 2.89573E-02 1.06933E-01 0.00000E+00
 -1       644 3.59760E-02 1.06933E-01 0.00000E+00
 -1       645 2.57808E-02 1.13094E-01 0.00000E+00
 -1       646 4.37730E-02 1.07115E-01 0.00000E+00
 -1       647 5.14847E-02 1.07115E-01 0.00000E+00
 -1       648 4.08429E-02 1.14048E-01 0.00000E+00
 -1       649 5.92562E-02 1.06499E-01 0.00000E+00
 -1       650 6.76949E-02 1.06499E-01 0.00000E+00
 -1       651 5.64114E-02 1.13613E-01 0.00000E+00
 -1       652 7.60418E-02 1.05809E-01 0.00000E+00
 -1       653 8.40450E-02 1.05809E-01 0.00000E+00
 -1       654 7.25297E-02 1.12307E-01 0.00000E+00
 -1       655 9.36068E-02 1.06696E-01 0.00000E+00
 -1       656 7.66879E-03 1.44516E-01 0.00000E+00
 -1       657 7.66879E-03 1.34985E-01 0.00000E+00
 -1       658 9.25787E-03 1.12660E-01 0.00000E+00
 -1       659 1.11930E-02 1.91591E-01 0.00000E+00
 -1       660 1.11930E-02 1.78891E-01 0.00000E+00
 -1       661 1.35964E-02 2.52393E-01 0.00000E+00
 -1       662 1.35964E-02 2.35805E-01 0.00000E+00
 -1       663 2.43564E-02 3.27974E-01 0.00000E+00
 -1       664 2.43564E-02 3.07634E-01 0.00000E+00
 -1       665 2.52059E-02 4.32172E-01 0.00000E+00
 -1       666 2.52059E-02 4.02075E-01 0.00000E+00
 -1       667 5.00000E-02 5.67318E-01 0.00000E+00
 -1       668 5.00000E-02 5.28487E-01 0.00000E+00
 -1       669 5.00000E-02 6.46077E-01 0.00000E+00
 -1       670 5.00000E-02 6.05281E-01 0.00000E+00
 -1       671 5.00000E-02 7.23982E-01 0.00000E+00
 -1       672 5.00000E-02 6.86264E-01 0.00000E+00
 -1       673 2.46168E-02 8.73107E-01 0.00000E+00
 -1       674 2.46168E-02 8.43739E-01 0.00000E+00
 -1       675 9.39304E-02 1.18428E-01 0.00000E+00
 -1       676 9.39304E-02 1.26971E-01 0.00000E+00
 -1       677 8.99202E-02 1.35223E-01 0.00000E+00
 -1       678 8.99202E-02 1.44679E-01 0.00000E+00
 -1       679 8.38506E-02 1.31715E-01 0.00000E+00
 -1       680 8.99009E-02 1.54818E-01 0.00000E+00
 -1       681 8.99009E-02 1.65160E-01 0.00000E+00
 -1       682 7.98211E-02 1.50105E-01 0.00000E+00
 -1       683 9.15172E-02 1.75473E-01 0.00000E+00
 -1       684 9.15172E-02 1.87736E-01 0.00000E+00
 -1       685 8.14181E-02 1.70557E-01 0.00000E+00
 -1       686 8.66583E-02 1.97269E-01 0.00000E+00
 -1       687 8.66583E-02 2.10943E-01 0.00000E+00
 -1       688 7.81755E-02 1.90402E-01 0.00000E+00
 -1       689 7.42998E-02 2.63669E-01 0.00000E+00
 -1       690 7.42998E-02 2.82240E-01 0.00000E+00
 -1       691 7.43564E-02 3.04326E-01 0.00000E+00
 -1       692 7.43564E-02 3.23839E-01 0.00000E+00
 -1       693 7.52059E-02 3.92304E-01 0.00000E+00
 -1       694 7.52059E-02 4.15346E-01 0.00000E+00
 -1       695 7.61496E-02 4.44982E-01 0.00000E+00
 -1       696 5.13555E-02 4.41002E-01 0.00000E+00
 -1       697 5.00000E-02 7.63738E-01 0.00000E+00
 -1       698 7.46168E-02 8.50624E-01 0.00000E+00
 -1       699 7.46168E-02 8.76138E-01 0.00000E+00
 -1       700 8.32239E-02 9.38491E-01 0.00000E+00
 -1       701 8.32239E-02 9.57037E-01 0.00000E+00
 -1       702 1.69446E-02 9.63598E-01 0.00000E+00
 -1       703 6.55914E-02 9.73919E-01 0.00000E+00
 -1       704 9.04383E-02 1.12505E-01 0.00000E+00
 -1       705 6.12444E-03 1.26947E-01 0.00000E+00
 -1       706 6.12444E-03 1.18716E-01 0.00000E+00
 -1       707 1.53823E-02 1.18378E-01 0.00000E+00
 -1       708 1.37932E-02 1.32473E-01 0.00000E+00
 -1       709 9.32808E-03 1.66974E-01 0.00000E+00
 -1       710 9.32808E-03 1.54463E-01 0.00000E+00
 -1       711 2.05211E-02 1.72322E-01 0.00000E+00
 -1       712 1.28627E-02 2.20603E-01 0.00000E+00
 -1       713 1.28627E-02 2.05535E-01 0.00000E+00
 -1       714 4.86561E-02 2.94324E-01 0.00000E+00
 -1       715 2.42998E-02 2.85548E-01 0.00000E+00
 -1       716 2.42998E-02 2.67247E-01 0.00000E+00
 -1       717 5.06170E-02 3.85963E-01 0.00000E+00
 -1       718 2.54111E-02 3.76672E-01 0.00000E+00
 -1       719 2.54111E-02 3.50049E-01 0.00000E+00
 -1       720 7.54111E-02 3.66901E-01 0.00000E+00
 -1       721 1.69969E-02 1.50458E-01 0.00000E+00
 -1       722 7.61496E-02 5.04181E-01 0.00000E+00
 -1       723 2.61496E-02 4.94944E-01 0.00000E+00
 -1       724 2.61496E-02 4.61808E-01 0.00000E+00
 -1       725 1.71645E-02 9.22023E-01 0.00000E+00
 -1       726 1.71645E-02 8.98481E-01 0.00000E+00
 -1       727 1.69446E-02 9.44324E-01 0.00000E+00
 -1       728 5.40369E-02 2.50664E-01 0.00000E+00
 -1       729 4.33335E-02 2.35810E-01 0.00000E+00
 -1       730 3.78961E-02 2.57384E-01 0.00000E+00
 -1       731 7.97371E-02 2.25521E-01 0.00000E+00
 -1       732 7.97371E-02 2.42095E-01 0.00000E+00
 -1       733 4.97674E-02 3.38485E-01 0.00000E+00
 -1       734 7.54111E-02 3.45915E-01 0.00000E+00
 -1       735 7.61496E-02 4.70519E-01 0.00000E+00
 -1       736 7.56464E-02 7.91886E-01 0.00000E+00
 -1       737 7.56464E-02 8.23429E-01 0.00000E+00
 -1       738 8.43687E-02 1.17540E-01 0.00000E+00
 -1       739 8.50477E-02 8.98486E-01 0.00000E+00
 -1       740 8.50477E-02 9.19231E-01 0.00000E+00
 -1       741 6.82716E-02 9.28579E-01 0.00000E+00
 -1       742 5.96646E-02 8.86972E-01 0.00000E+00
 -1       743 2.40557E-02 1.98182E-01 0.00000E+00
 -1       744 2.64591E-02 2.27328E-01 0.00000E+00
 -1       745 5.02632E-02 8.37430E-01 0.00000E+00
 -1       746 2.26139E-02 1.20232E-01 0.00000E+00
 -1       747 2.98790E-02 1.21004E-01 0.00000E+00
 -1       748 1.94805E-02 1.26288E-01 0.00000E+00
 -1       749 3.77145E-02 1.22289E-01 0.00000E+00
 -1       750 4.55115E-02 1.22471E-01 0.00000E+00
 -1       751 3.45476E-02 1.29427E-01 0.00000E+00
 -1       752 5.42648E-02 1.22075E-01 0.00000E+00
 -1       753 6.20363E-02 1.21459E-01 0.00000E+00
 -1       754 5.11364E-02 1.30316E-01 0.00000E+00
 -1       755 6.90465E-02 1.18387E-01 0.00000E+00
 -1       756 7.73933E-02 1.17697E-01 0.00000E+00
 -1       757 8.08855E-02 1.23620E-01 0.00000E+00
 -1       758 6.68999E-02 1.26848E-01 0.00000E+00
 -1       759 6.63954E-02 2.14512E-01 0.00000E+00
 -1       760 3.08594E-02 1.76274E-01 0.00000E+00
 -1       761 2.89944E-02 1.64357E-01 0.00000E+00
 -1       762 4.25998E-02 2.20608E-01 0.00000E+00
 -1       763 3.41091E-02 9.37673E-01 0.00000E+00
 -1       764 2.56464E-02 7.82086E-01 0.00000E+00
 -1       765 2.56464E-02 8.16545E-01 0.00000E+00
 -1       766 7.05175E-02 1.67610E-01 0.00000E+00
 -1       767 7.21337E-02 1.77922E-01 0.00000E+00
 -1       768 6.72749E-02 1.87455E-01 0.00000E+00
 -1       769 5.36187E-02 1.84451E-01 0.00000E+00
 -1       770 5.96605E-02 1.96931E-01 0.00000E+00
 -1       771 3.58648E-02 2.03026E-01 0.00000E+00
 -1       772 3.41952E-02 1.89083E-01 0.00000E+00
 -1       773 5.27393E-02 2.11508E-01 0.00000E+00
 -1       774 7.68752E-02 1.31872E-01 0.00000E+00
 -1       775 2.58710E-02 1.53375E-01 0.00000E+00
 -1       776 2.42117E-02 1.43428E-01 0.00000E+00
 -1       777 5.01685E-02 9.53907E-01 0.00000E+00
 -1       778 2.10249E-02 1.34326E-01 0.00000E+00
 -1       779 2.98990E-02 1.37244E-01 0.00000E+00
 -1       780 4.17813E-02 8.89998E-01 0.00000E+00
 -1       781 3.62093E-02 1.57328E-01 0.00000E+00
 -1       782 6.78203E-02 1.44979E-01 0.00000E+00
 -1       783 6.78010E-02 1.55118E-01 0.00000E+00
 -1       784 6.98650E-02 1.34944E-01 0.00000E+00
 -1       785 5.22123E-02 9.12345E-01 0.00000E+00
 -1       786 5.03884E-02 9.31605E-01 0.00000E+00
 -1       787 5.85166E-02 1.62483E-01 0.00000E+00
 -1       788 3.77345E-02 1.38529E-01 0.00000E+00
 -1       789 4.26685E-02 1.81118E-01 0.00000E+00
 -1       790 5.02829E-02 1.71642E-01 0.00000E+00
 -1       791 4.75664E-02 1.59150E-01 0.00000E+00
 -1       792 4.44430E-02 1.48168E-01 0.00000E+00
 -1       793 4.90916E-02 1.40352E-01 0.00000E+00
 -1       794 5.78449E-02 1.39956E-01 0.00000E+00
 -1       795 1.54874E-02 8.47275E-01 4.89172E-01
 -1       796 4.00304E-02 8.43049E-01 4.86732E-01
 -1       797 5.69105E-02 8.43049E-01 4.86732E-01
 -1       798 2.45430E-02 8.24294E-01 4.75904E-01
 -1       799 8.23675E-02 8.49567E-01 4.90495E-01
 -1       800 2.45430E-02 8.01609E-01 4.62807E-01
 -1       801 2.55616E-02 7.44378E-01 4.29765E-01
 -1       802 2.55616E-02 7.71815E-01 4.45606E-01
 -1       803 5.00000E-02 6.79881E-01 3.92528E-01
 -1       804 5.00000E-02 7.09694E-01 4.09740E-01
 -1       805 5.00000E-02 6.13517E-01 3.54213E-01
 -1       806 5.00000E-02 6.48499E-01 3.74410E-01
 -1       807 5.00000E-02 5.34354E-01 3.08509E-01
 -1       808 5.00000E-02 5.73571E-01 3.31150E-01
 -1       809 5.00000E-02 4.61594E-01 2.66501E-01
 -1       810 5.00000E-02 4.98783E-01 2.87971E-01
 -1       811 5.00000E-02 3.99271E-01 2.30519E-01
 -1       812 5.00000E-02 4.30508E-01 2.48554E-01
 -1       813 5.00000E-02 3.44086E-01 1.98659E-01
 -1       814 5.00000E-02 3.71617E-01 2.14553E-01
 -1       815 2.61735E-02 2.48970E-01 1.43743E-01
 -1       816 2.61735E-02 2.68885E-01 1.55241E-01
 -1       817 1.69553E-02 1.86351E-01 1.07591E-01
 -1       818 1.69553E-02 2.00991E-01 1.16043E-01
 -1       819 1.25976E-02 1.36768E-01 7.89640E-02
 -1       820 1.25976E-02 1.48418E-01 8.56906E-02
 -1       821 6.24065E-03 1.03513E-01 5.97647E-02
 -1       822 6.24065E-03 1.11030E-01 6.41044E-02
 -1       823 6.04203E-03 9.25801E-02 5.34526E-02
 -1       824 2.14333E-02 9.20682E-02 5.31570E-02
 -1       825 1.50409E-02 9.20682E-02 5.31570E-02
 -1       826 5.11764E-02 9.21673E-02 5.32142E-02
 -1       827 4.34648E-02 9.21673E-02 5.32143E-02
 -1       828 8.39269E-02 9.20081E-02 5.31223E-02
 -1       829 7.59236E-02 9.20081E-02 5.31223E-02
 -1       830 9.36068E-02 9.27218E-02 5.35344E-02
 -1       831 7.45430E-02 8.26587E-01 4.77228E-01
 -1       832 7.45430E-02 8.07474E-01 4.66193E-01
 -1       833 7.55616E-02 7.77680E-01 4.48991E-01
 -1       834 7.55616E-02 7.53482E-01 4.35021E-01
 -1       835 7.68340E-02 2.79172E-01 1.61181E-01
 -1       836 7.68340E-02 3.04859E-01 1.76011E-01
 -1       837 7.61735E-02 2.55970E-01 1.47785E-01
 -1       838 7.61735E-02 2.35501E-01 1.35967E-01
 -1       839 8.51939E-02 2.07216E-01 1.19637E-01
 -1       840 8.51939E-02 1.91525E-01 1.10578E-01
 -1       841 8.38880E-02 1.78832E-01 1.03250E-01
 -1       842 8.38880E-02 1.65453E-01 9.55252E-02
 -1       843 6.90819E-02 1.85277E-01 1.06971E-01
 -1       844 8.18047E-02 1.52298E-01 8.79305E-02
 -1       845 8.18047E-02 1.40200E-01 8.09456E-02
 -1       846 6.56928E-02 1.59430E-01 9.20481E-02
 -1       847 9.33158E-02 1.11894E-01 6.46034E-02
 -1       848 9.33158E-02 1.03669E-01 5.98545E-02
 -1       852 7.55616E-02 7.25797E-01 4.19037E-01
 -1       853 6.93691E-02 1.35349E-01 7.81449E-02
 -1       854 8.75643E-02 1.29273E-01 7.46372E-02
 -1       855 2.68340E-02 2.92087E-01 1.68637E-01
 -1       856 2.68340E-02 3.14641E-01 1.81658E-01
 -1       857 2.22387E-02 2.15973E-01 1.24693E-01
 -1       858 2.22387E-02 2.32326E-01 1.34134E-01
 -1       859 1.52143E-02 1.59764E-01 9.22408E-02
 -1       860 1.52143E-02 1.72987E-01 9.98751E-02
 -1       861 8.89195E-03 1.18085E-01 6.81776E-02
 -1       862 8.89195E-03 1.27122E-01 7.33950E-02
 -1       863 8.99890E-03 9.80483E-02 5.66096E-02
 -1       864 3.58461E-02 9.19785E-02 5.31053E-02
 -1       865 2.88273E-02 9.19785E-02 5.31053E-02
 -1       866 6.72991E-02 9.21323E-02 5.31940E-02
 -1       867 5.88603E-02 9.21323E-02 5.31940E-02
 -1       868 9.03201E-02 9.81299E-02 5.66567E-02
 -1       869 7.20157E-02 9.75404E-02 5.63164E-02
 -1       870 5.01046E-02 7.90275E-01 4.56263E-01
 -1       871 7.68340E-02 3.30389E-01 1.90751E-01
 -1       872 8.36359E-02 1.02955E-01 5.94424E-02
 -1       873 8.75643E-02 1.19858E-01 6.92015E-02
 -1       874 8.08801E-02 1.16458E-01 6.72383E-02
 -1       875 3.91940E-02 2.06269E-01 1.19090E-01
 -1       876 1.51326E-02 1.15521E-01 6.66974E-02
 -1       877 4.84122E-02 2.37895E-01 1.37350E-01
 -1       878 3.21696E-02 1.77923E-01 1.02725E-01
 -1       879 2.14896E-02 1.32222E-01 7.63396E-02
 -1       880 1.52395E-02 1.03001E-01 5.94691E-02
 -1       881 5.57073E-02 9.76996E-02 5.64083E-02
 -1       882 5.30075E-02 2.77742E-01 1.60355E-01
 -1       883 2.78119E-02 1.53213E-01 8.84589E-02
 -1       884 4.04047E-02 9.75458E-02 5.63195E-02
 -1       885 2.53919E-02 9.74467E-02 5.62623E-02
 -1       889 5.30227E-02 1.35583E-01 7.82799E-02
 -1       890 5.87823E-02 1.24656E-01 7.19714E-02
 -1       891 4.91024E-02 1.68572E-01 9.73260E-02
 -1       892 5.08433E-02 1.81936E-01 1.05042E-01
 -1       893 3.01099E-02 1.23733E-01 7.14385E-02
 -1       894 3.38156E-02 1.33379E-01 7.70076E-02
 -1       895 2.23543E-02 1.04115E-01 6.01123E-02
 -1       896 1.95960E-02 1.09580E-01 6.32674E-02
 -1       897 2.97483E-02 1.04025E-01 6.00605E-02
 -1       898 5.21491E-02 1.94628E-01 1.12370E-01
 -1       899 7.93967E-02 1.08144E-01 6.24381E-02
 -1       900 7.64011E-02 1.02605E-01 5.92403E-02
 -1       901 6.77766E-02 1.02729E-01 5.93120E-02
 -1       902 7.36453E-02 1.16108E-01 6.70362E-02
 -1       903 7.22387E-02 2.18857E-01 1.26358E-01
 -1       904 5.74326E-02 2.09611E-01 1.21020E-01
 -1       905 3.70954E-02 1.03146E-01 5.95529E-02
 -1       906 3.40578E-02 1.09815E-01 6.34029E-02
 -1       907 4.47141E-02 1.03335E-01 5.96619E-02
 -1       908 4.70190E-02 1.55417E-01 8.97313E-02
 -1       909 4.44023E-02 1.44072E-01 8.31811E-02
 -1       910 2.22473E-02 1.16635E-01 6.73406E-02
 -1       911 3.45733E-02 1.17792E-01 6.80085E-02
 -1       912 5.99717E-02 1.04530E-01 6.03517E-02
 -1       913 5.22879E-02 1.04565E-01 6.03719E-02
 -1       914 6.43571E-02 1.09594E-01 6.32756E-02
 -1       915 6.58405E-02 1.17909E-01 6.80758E-02
 -1       916 4.94941E-02 1.18142E-01 6.82109E-02
 -1       917 4.89786E-02 1.10165E-01 6.36053E-02
 -1       918 4.19204E-02 1.16913E-01 6.75009E-02
 -1       919 6.04201E-03 9.98180E-02 5.55353E-03
 -1       920 2.04054E-02 9.96236E-02 8.18458E-03
 -1       921 1.40131E-02 9.96236E-02 8.18458E-03
 -1       922 5.04506E-02 9.95132E-02 9.30556E-03
 -1       923 4.27390E-02 9.95132E-02 9.30556E-03
 -1       924 8.56703E-02 9.95488E-02 8.94378E-03
 -1       925 7.76670E-02 9.95488E-02 8.94378E-03
 -1       926 9.36068E-02 9.97899E-02 6.40868E-03
 -1       927 6.04203E-03 8.94383E-02 4.46906E-02
 -1       928 1.39606E-02 9.03146E-02 4.28399E-02
 -1       929 2.03530E-02 9.03146E-02 4.28399E-02
 -1       930 2.77751E-02 8.92553E-02 4.50330E-02
 -1       931 3.47938E-02 8.92553E-02 4.50330E-02
 -1       932 2.32593E-02 9.26106E-02 3.76721E-02
 -1       933 4.13549E-02 8.99915E-02 4.35527E-02
 -1       934 4.90665E-02 8.99915E-02 4.35527E-02
 -1       935 3.72425E-02 9.23226E-02 3.84087E-02
 -1       936 5.70196E-02 9.03990E-02 4.26534E-02
 -1       937 6.54584E-02 9.03990E-02 4.26534E-02
 -1       938 5.17566E-02 9.32677E-02 3.59266E-02
 -1       939 7.34123E-02 9.04386E-02 4.25662E-02
 -1       940 8.14155E-02 9.04386E-02 4.25662E-02