    1C
    1UModel: beam     Date: 10-Mar-1998                                 
    1UUSER                                                              
    1UDATE              15.april.2026                                   
    1UTIME              18:32:53                                        
    1UHOST                                                              
    1UPGM               CalculiX                                        
    1UVERSION           Version DEVELOPMENT                             
    1UCOMPILETIME       Wed Apr 15 18:27:41 CEST 2026                    
    1UDIR                                                               
    1UDBN                                                               
    1UMAT    1EL                                                        
    2C                            81                                     1
 -1         1 0.00000E+00 0.00000E+00 0.00000E+00
 -1         2 1.00000E+00 0.00000E+00 0.00000E+00
 -1         3 1.00000E+00 1.50000E+00 0.00000E+00
 -1         4 0.00000E+00 1.50000E+00 0.00000E+00
 -1         5 0.00000E+00 0.00000E+00 8.00000E+00
 -1         6 1.00000E+00 0.00000E+00 8.00000E+00
 -1         7 1.00000E+00 1.50000E+00 8.00000E+00
 -1         8 0.00000E+00 1.50000E+00 8.00000E+00
 -1        10 5.00000E-01 0.00000E+00 0.00000E+00
 -1        13 1.00000E+00 7.50000E-01 0.00000E+00
 -1        16 5.00000E-01 1.50000E+00 0.00000E+00
 -1        19 0.00000E+00 7.50000E-01 0.00000E+00
 -1        22 5.00000E-01 0.00000E+00 8.00000E+00
 -1        25 1.00000E+00 7.50000E-01 8.00000E+00
 -1        28 5.00000E-01 1.50000E+00 8.00000E+00
 -1        31 0.00000E+00 7.50000E-01 8.00000E+00
 -1        34 1.00000E+00 0.00000E+00 1.00000E+00
 -1        36 1.00000E+00 0.00000E+00 2.00000E+00
 -1        38 1.00000E+00 0.00000E+00 3.00000E+00
 -1        40 1.00000E+00 0.00000E+00 4.00000E+00
 -1        42 1.00000E+00 0.00000E+00 5.00000E+00
 -1        44 1.00000E+00 0.00000E+00 6.00000E+00
 -1        46 1.00000E+00 0.00000E+00 7.00000E+00
 -1        49 0.00000E+00 0.00000E+00 7.00000E+00
 -1        51 0.00000E+00 0.00000E+00 6.00000E+00
 -1        53 0.00000E+00 0.00000E+00 5.00000E+00
 -1        55 0.00000E+00 0.00000E+00 4.00000E+00
 -1        57 0.00000E+00 0.00000E+00 3.00000E+00
 -1        59 0.00000E+00 0.00000E+00 2.00000E+00
 -1        61 0.00000E+00 0.00000E+00 1.00000E+00
 -1        64 1.00000E+00 1.50000E+00 1.00000E+00
 -1        66 1.00000E+00 1.50000E+00 2.00000E+00
 -1        68 1.00000E+00 1.50000E+00 3.00000E+00
 -1        70 1.00000E+00 1.50000E+00 4.00000E+00
 -1        72 1.00000E+00 1.50000E+00 5.00000E+00
 -1        74 1.00000E+00 1.50000E+00 6.00000E+00
 -1        76 1.00000E+00 1.50000E+00 7.00000E+00
 -1        79 0.00000E+00 1.50000E+00 1.00000E+00
 -1        81 0.00000E+00 1.50000E+00 2.00000E+00
 -1        83 0.00000E+00 1.50000E+00 3.00000E+00
 -1        85 0.00000E+00 1.50000E+00 4.00000E+00
 -1        87 0.00000E+00 1.50000E+00 5.00000E+00
 -1        89 0.00000E+00 1.50000E+00 6.00000E+00
 -1        91 0.00000E+00 1.50000E+00 7.00000E+00
 -1        95 5.00000E-01 7.50000E-01 0.00000E+00
 -1       100 5.00000E-01 7.50000E-01 8.00000E+00
 -1       105 5.00000E-01 0.00000E+00 1.00000E+00
 -1       109 5.00000E-01 0.00000E+00 2.00000E+00
 -1       113 5.00000E-01 0.00000E+00 3.00000E+00
 -1       117 5.00000E-01 0.00000E+00 4.00000E+00
 -1       121 5.00000E-01 0.00000E+00 5.00000E+00
 -1       125 5.00000E-01 0.00000E+00 6.00000E+00
 -1       129 5.00000E-01 0.00000E+00 7.00000E+00
 -1       134 1.00000E+00 7.50000E-01 1.00000E+00
 -1       138 1.00000E+00 7.50000E-01 2.00000E+00
 -1       142 1.00000E+00 7.50000E-01 3.00000E+00
 -1       146 1.00000E+00 7.50000E-01 4.00000E+00
 -1       150 1.00000E+00 7.50000E-01 5.00000E+00
 -1       154 1.00000E+00 7.50000E-01 6.00000E+00
 -1       158 1.00000E+00 7.50000E-01 7.00000E+00
 -1       163 5.00000E-01 1.50000E+00 1.00000E+00
 -1       167 5.00000E-01 1.50000E+00 2.00000E+00
 -1       171 5.00000E-01 1.50000E+00 3.00000E+00
 -1       175 5.00000E-01 1.50000E+00 4.00000E+00
 -1       179 5.00000E-01 1.50000E+00 5.00000E+00
 -1       183 5.00000E-01 1.50000E+00 6.00000E+00
 -1       187 5.00000E-01 1.50000E+00 7.00000E+00
 -1       192 0.00000E+00 7.50000E-01 1.00000E+00
 -1       196 0.00000E+00 7.50000E-01 2.00000E+00
 -1       200 0.00000E+00 7.50000E-01 3.00000E+00
 -1       204 0.00000E+00 7.50000E-01 4.00000E+00
 -1       208 0.00000E+00 7.50000E-01 5.00000E+00
 -1       212 0.00000E+00 7.50000E-01 6.00000E+00
 -1       216 0.00000E+00 7.50000E-01 7.00000E+00
 -1       222 5.00000E-01 7.50000E-01 1.00000E+00
 -1       228 5.00000E-01 7.50000E-01 2.00000E+00
 -1       234 5.00000E-01 7.50000E-01 3.00000E+00
 -1       240 5.00000E-01 7.50000E-01 4.00000E+00
 -1       246 5.00000E-01 7.50000E-01 5.00000E+00
 -1       252 5.00000E-01 7.50000E-01 6.00000E+00
 -1       258 5.00000E-01 7.50000E-01 7.00000E+00
 -3
    3C                            32                                     1
 -1         1    1    0    1
 -2         1        10        95        19        61       105       222       192
 -1         2    1    0    1
 -2        10         2        13        95       105        34       134       222
 -1         3    1    0    1
 -2        19        95        16         4       192       222       163        79
 -1         4    1    0    1
 -2        95        13         3        16       222       134        64       163
 -1         5    1    0    1
 -2        61       105       222       192        59       109       228       196
 -1         6    1    0    1
 -2       105        34       134       222       109        36       138       228
 -1         7    1    0    1
 -2       192       222       163        79       196       228       167        81
 -1         8    1    0    1
 -2       222       134        64       163       228       138        66       167
 -1         9    1    0    1
 -2        59       109       228       196        57       113       234       200
 -1        10    1    0    1
 -2       109        36       138       228       113        38       142       234
 -1        11    1    0    1
 -2       196       228       167        81       200       234       171        83
 -1        12    1    0    1
 -2       228       138        66       167       234       142        68       171
 -1        13    1    0    1
 -2        57       113       234       200        55       117       240       204
 -1        14    1    0    1
 -2       113        38       142       234       117        40       146       240
 -1        15    1    0    1
 -2       200       234       171        83       204       240       175        85
 -1        16    1    0    1
 -2       234       142        68       171       240       146        70       175
 -1        17    1    0    1
 -2        55       117       240       204        53       121       246       208
 -1        18    1    0    1
 -2       117        40       146       240       121        42       150       246
 -1        19    1    0    1
 -2       204       240       175        85       208       246       179        87
 -1        20    1    0    1
 -2       240       146        70       175       246       150        72       179
 -1        21    1    0    1
 -2        53       121       246       208        51       125       252       212
 -1        22    1    0    1
 -2       121        42       150       246       125        44       154       252
 -1        23    1    0    1
 -2       208       246       179        87       212       252       183        89
 -1        24    1    0    1
 -2       246       150        72       179       252       154        74       183
 -1        25    1    0    1
 -2        51       125       252       212        49       129       258       216
 -1        26    1    0    1
 -2       125        44       154       252       129        46       158       258
 -1        27    1    0    1
 -2       212       252       183        89       216       258       187        91
 -1        28    1    0    1
 -2       252       154        74       183       258       158        76       187
 -1        29    1    0    1
 -2        49       129       258       216         5        22       100        31
 -1        30    1    0    1
 -2       129        46       158       258        22         6        25       100
 -1        31    1    0    1
 -2       216       258       187        91        31       100        28         8
 -1        32    1    0    1
 -2       258       158        76       187       100        25         7        28
 -3
    1PSTEP                         1           1           1          
    1PGM                1.000000E+00                                  
    1PGK                9.752896E+09                                  
    1PHID                         -1                                  
    1PSUBC                         0                                  
    1PMODE                         1                                  
  100CL  101 15717.62535          81                     2    1MODAL      1
 -4  DISP        4    1
 -5  D1          1    2    1    0
 -5  D2          1    2    2    0
 -5  D3          1    2    3    0
 -5  ALL         1    2    0    0    1ALL
 -1         1 0.00000E+00 0.00000E+00 0.00000E+00
 -1         2 0.00000E+00 0.00000E+00 0.00000E+00
 -1         3 0.00000E+00 0.00000E+00 0.00000E+00
 -1         4 0.00000E+00 0.00000E+00 0.00000E+00
 -1         5 6.51087E+03 3.57087E-01 5.59031E+02
 -1         6 6.51087E+03-3.57087E-01-5.59031E+02
 -1         7 6.51087E+03 3.57087E-01-5.59031E+02
 -1         8 6.51087E+03-3.57087E-01 5.59031E+02
 -1        10 0.00000E+00 0.00000E+00 0.00000E+00
 -1        13 0.00000E+00 0.00000E+00 0.00000E+00
 -1        16 0.00000E+00 0.00000E+00 0.00000E+00
 -1        19 0.00000E+00 0.00000E+00 0.00000E+00
 -1        22 6.51080E+03 3.52429E-11-9.73444E-12
 -1        25 6.51124E+03-1.50067E-10-5.59125E+02
 -1        28 6.51080E+03 3.59250E-11-7.36122E-12
 -1        31 6.51124E+03 2.21007E-10 5.59125E+02
 -1        34 1.66871E+02-3.52443E+01-1.53006E+02
 -1        36 6.25847E+02-2.51625E+01-2.87972E+02
 -1        38 1.32720E+03-1.91036E+01-3.92117E+02
 -1        40 2.20563E+03-1.32578E+01-4.67643E+02
 -1        42 3.20705E+03-8.11526E+00-5.17157E+02
 -1        44 4.28227E+03-4.02704E+00-5.44848E+02
 -1        46 5.39226E+03-1.33013E+00-5.56377E+02
 -1        49 5.39226E+03 1.33013E+00 5.56377E+02
 -1        51 4.28227E+03 4.02704E+00 5.44848E+02
 -1        53 3.20705E+03 8.11526E+00 5.17157E+02
 -1        55 2.20563E+03 1.32578E+01 4.67643E+02
 -1        57 1.32720E+03 1.91036E+01 3.92117E+02
 -1        59 6.25847E+02 2.51625E+01 2.87972E+02
 -1        61 1.66871E+02 3.52443E+01 1.53006E+02
 -1        64 1.66871E+02 3.52443E+01-1.53006E+02
 -1        66 6.25847E+02 2.51625E+01-2.87972E+02
 -1        68 1.32720E+03 1.91036E+01-3.92117E+02
 -1        70 2.20563E+03 1.32578E+01-4.67643E+02
 -1        72 3.20705E+03 8.11526E+00-5.17157E+02
 -1        74 4.28227E+03 4.02704E+00-5.44848E+02
 -1        76 5.39226E+03 1.33013E+00-5.56377E+02
 -1        79 1.66871E+02-3.52443E+01 1.53006E+02
 -1        81 6.25847E+02-2.51625E+01 2.87972E+02
 -1        83 1.32720E+03-1.91036E+01 3.92117E+02
 -1        85 2.20563E+03-1.32578E+01 4.67643E+02
 -1        87 3.20705E+03-8.11526E+00 5.17157E+02
 -1        89 4.28227E+03-4.02704E+00 5.44848E+02
 -1        91 5.39226E+03-1.33013E+00 5.56377E+02
 -1        95 0.00000E+00 0.00000E+00 0.00000E+00
 -1       100 6.51117E+03 3.50155E-11-8.00071E-12
 -1       105 1.51908E+02 4.06430E-12 2.35900E-12
 -1       109 6.17623E+02 1.18234E-11 3.01270E-12
 -1       113 1.32010E+03 2.04636E-11 1.84741E-12
 -1       117 2.20095E+03 2.91038E-11-4.83169E-13
 -1       121 3.20414E+03 3.41061E-11-4.20641E-12
 -1       125 4.28086E+03 3.70619E-11-6.72884E-12
 -1       129 5.39183E+03 3.68345E-11-8.24230E-12
 -1       134 1.91092E+02-2.73133E-11-1.51440E+02
 -1       138 6.45210E+02-4.99654E-11-2.89249E+02
 -1       142 1.34146E+03-7.17364E-11-3.92670E+02
 -1       146 2.21562E+03-9.14042E-11-4.68228E+02
 -1       150 3.21317E+03-1.08457E-10-5.17650E+02
 -1       154 4.28534E+03-1.24601E-10-5.45208E+02
 -1       158 5.39332E+03-1.41199E-10-5.56569E+02
 -1       163 1.51908E+02 4.77485E-12-4.97380E-12
 -1       167 6.17623E+02 1.25624E-11-8.75389E-12
 -1       171 1.32010E+03 2.18279E-11-1.01466E-11
 -1       175 2.20095E+03 2.93312E-11-1.01466E-11
 -1       179 3.20414E+03 3.59250E-11-9.72022E-12
 -1       183 4.28086E+03 3.63798E-11-8.18545E-12
 -1       187 5.39183E+03 3.68345E-11-7.50333E-12
 -1       192 1.91092E+02 3.48450E-11 1.51440E+02
 -1       196 6.45210E+02 7.43512E-11 2.89249E+02
 -1       200 1.34146E+03 1.14369E-10 3.92670E+02
 -1       204 2.21562E+03 1.50749E-10 4.68228E+02
 -1       208 3.21317E+03 1.78488E-10 5.17650E+02
 -1       212 4.28534E+03 1.99634E-10 5.45208E+02
 -1       216 5.39332E+03 2.14413E-10 5.56569E+02
 -1       222 1.76077E+02 3.97904E-12-1.26588E-12
 -1       228 6.36828E+02 1.18234E-11-2.78710E-12
 -1       234 1.33446E+03 2.11458E-11-4.03766E-12
 -1       240 2.21091E+03 2.97860E-11-5.71276E-12
 -1       246 3.21028E+03 3.50155E-11-6.46594E-12
 -1       252 4.28395E+03 3.72893E-11-8.15703E-12
 -1       258 5.39290E+03 3.63798E-11-8.86757E-12
 -3
    1PSTEP                         2           1           1          
    1PGM                1.000000E+00                                  
    1PGK                9.752896E+09                                  
    1PHID                         -1                                  
    1PSUBC                         0                                  
    1PMODE                         1                                  
  100CL  101 15717.62535          81                     2    1MODAL      1
 -4  STRESS      6    1
 -5  SXX         1    4    1    1
 -5  SYY         1    4    2    2
 -5  SZZ         1    4    3    3
 -5  SXY         1    4    1    2
 -5  SYZ         1    4    2    3
 -5  SZX         1    4    3    1
 -1         1 1.85370E+07 1.85370E+07 4.32528E+07-6.01821E+00 2.84661E+06 1.34779E+07
 -1         2-1.85370E+07-1.85370E+07-4.32528E+07-6.01821E+00-2.84661E+06 1.34779E+07
 -1         3-1.85370E+07-1.85370E+07-4.32528E+07 6.01821E+00 2.84661E+06 1.34779E+07
 -1         4 1.85370E+07 1.85370E+07 4.32528E+07 6.01821E+00-2.84661E+06 1.34779E+07
 -1         5 2.22926E+05 1.69407E+05 6.75031E+05-1.81278E+04-6.85515E+04 4.43998E+04
 -1         6-2.22926E+05-1.69407E+05-6.75031E+05-1.81278E+04 6.85515E+04 4.43998E+04
 -1         7-2.22926E+05-1.69407E+05-6.75031E+05 1.81278E+04-6.85515E+04 4.43998E+04
 -1         8 2.22926E+05 1.69407E+05 6.75031E+05 1.81278E+04 6.85515E+04 4.43998E+04
 -1        10 2.82729E-07 2.85159E-07 6.72240E-07-6.03805E+00 3.28053E-07 1.22693E+07
 -1        13-1.83472E+07-1.83472E+07-4.28099E+07 2.61934E-10-2.20632E-06 1.54342E+07
 -1        16-6.02682E-07-6.03846E-07-1.40886E-06 6.03805E+00 3.85597E-07 1.22693E+07
 -1        19 1.83472E+07 1.83472E+07 4.28099E+07 8.73115E-11 2.81403E-06 1.54342E+07
 -1        22 1.90579E-07-8.95961E-08-2.76952E-07-1.73515E+04 5.48893E-08 7.30489E+04
 -1        25-2.15113E+05-1.59265E+05-6.49038E+05 2.90096E-07-1.02054E-06-2.66512E+04
 -1        28 4.71700E-07 4.90281E-07 3.13710E-07 1.73515E+04-6.97401E-09 7.30489E+04
 -1        31 2.15113E+05 1.59265E+05 6.49038E+05 4.58087E-07 9.69158E-07-2.66512E+04
 -1        34-3.29110E+06-5.34312E+05-3.13840E+07-3.08484E+06-8.47445E+05 5.58152E+05
 -1        36-5.77026E+06-3.00756E+06-2.77394E+07-1.97950E+06 5.14305E+05 3.40767E+05
 -1        38-3.78677E+06-1.96424E+06-2.05903E+07-1.54968E+06 4.21156E+05 4.57098E+05
 -1        40-2.78282E+06-1.44165E+06-1.43963E+07-1.06620E+06 3.80707E+05 3.74659E+05
 -1        42-1.72358E+06-9.14173E+05-8.89773E+06-6.51269E+05 3.19751E+05 3.23141E+05
 -1        44-9.28547E+05-5.16473E+05-4.55151E+06-3.19042E+05 2.35220E+05 2.34860E+05
 -1        46-4.02815E+05-2.54314E+05-1.68632E+06-1.00656E+05 1.27600E+05 1.24906E+05
 -1        49 4.02815E+05 2.54314E+05 1.68632E+06-1.00656E+05-1.27600E+05 1.24906E+05
 -1        51 9.28547E+05 5.16473E+05 4.55151E+06-3.19042E+05-2.35220E+05 2.34860E+05
 -1        53 1.72358E+06 9.14173E+05 8.89773E+06-6.51269E+05-3.19751E+05 3.23141E+05
 -1        55 2.78282E+06 1.44165E+06 1.43963E+07-1.06620E+06-3.80707E+05 3.74659E+05
 -1        57 3.78677E+06 1.96424E+06 2.05903E+07-1.54968E+06-4.21156E+05 4.57098E+05
 -1        59 5.77026E+06 3.00756E+06 2.77394E+07-1.97950E+06-5.14305E+05 3.40767E+05
 -1        61 3.29110E+06 5.34312E+05 3.13840E+07-3.08484E+06 8.47445E+05 5.58152E+05
 -1        64-3.29110E+06-5.34312E+05-3.13840E+07 3.08484E+06 8.47445E+05 5.58152E+05
 -1        66-5.77026E+06-3.00756E+06-2.77394E+07 1.97950E+06-5.14305E+05 3.40767E+05
 -1        68-3.78677E+06-1.96424E+06-2.05903E+07 1.54968E+06-4.21156E+05 4.57098E+05
 -1        70-2.78282E+06-1.44165E+06-1.43963E+07 1.06620E+06-3.80707E+05 3.74659E+05
 -1        72-1.72358E+06-9.14173E+05-8.89773E+06 6.51269E+05-3.19751E+05 3.23141E+05
 -1        74-9.28547E+05-5.16473E+05-4.55151E+06 3.19042E+05-2.35220E+05 2.34860E+05
 -1        76-4.02815E+05-2.54314E+05-1.68632E+06 1.00656E+05-1.27600E+05 1.24906E+05
 -1        79 3.29110E+06 5.34312E+05 3.13840E+07 3.08484E+06-8.47445E+05 5.58152E+05
 -1        81 5.77026E+06 3.00756E+06 2.77394E+07 1.97950E+06 5.14305E+05 3.40767E+05
 -1        83 3.78677E+06 1.96424E+06 2.05903E+07 1.54968E+06 4.21156E+05 4.57098E+05
 -1        85 2.78282E+06 1.44165E+06 1.43963E+07 1.06620E+06 3.80707E+05 3.74659E+05
 -1        87 1.72358E+06 9.14173E+05 8.89773E+06 6.51269E+05 3.19751E+05 3.23141E+05
 -1        89 9.28547E+05 5.16473E+05 4.55151E+06 3.19042E+05 2.35220E+05 2.34860E+05
 -1        91 4.02815E+05 2.54314E+05 1.68632E+06 1.00656E+05 1.27600E+05 1.24906E+05
 -1        95-1.55080E-07-1.54840E-07-3.61295E-07 3.67436E-10 3.21586E-07 1.42214E+07
 -1       100 1.01743E-07 2.10447E-07 2.81416E-07 4.82203E-07 1.69604E-08 1.46747E+03
 -1       105-6.10016E-08 5.14556E-08 3.16883E-07-3.09043E+06 8.77292E-08 2.26041E+05
 -1       109 1.79280E-08-7.45058E-09-4.83706E-08-1.99654E+06 3.90602E-08 6.58539E+05
 -1       113 1.43191E-07 1.49710E-07-2.76486E-07-1.53983E+06 6.46568E-08 5.99917E+05
 -1       117-4.73810E-07-2.01107E-07-8.34290E-07-1.06854E+06-1.44710E-08 5.43857E+05
 -1       121 1.00059E-07 1.08383E-07-5.87053E-07-6.49358E+05 7.70394E-08 4.55523E+05
 -1       125-1.01473E-06-5.00731E-07-8.66552E-07-3.17576E+05-4.29026E-08 3.34922E+05
 -1       129 1.15411E-07-1.92802E-07-3.33908E-07-9.91726E+04-1.42012E-07 1.78893E+05
 -1       134-3.33910E+06-5.99084E+05-3.15519E+07-1.41910E-07-3.36106E-06 1.59317E+06
 -1       138-5.80924E+06-3.09765E+06-2.80007E+07 1.11875E-07-3.42203E-06-2.67569E+05
 -1       142-3.79657E+06-1.94450E+06-2.05147E+07 4.56930E-08-3.22875E-06-1.09702E+04
 -1       146-2.76684E+06-1.43269E+06-1.43824E+07 8.00355E-08-2.78304E-06-4.86413E+04
 -1       150-1.71997E+06-9.04829E+05-8.87020E+06 3.54194E-08-2.28279E-06-3.53722E+04
 -1       154-9.18013E+05-5.01539E+05-4.51226E+06-1.74769E-08-1.94902E-06-2.78669E+04
 -1       158-3.94431E+05-2.41480E+05-1.65193E+06 1.66074E-07-1.48580E-06-1.54748E+04
 -1       163 1.04308E-07-1.31549E-08-8.92440E-07 3.09043E+06 1.06986E-07 2.26041E+05
 -1       167 1.22003E-07 9.92441E-08-4.81261E-07 1.99654E+06 4.58440E-08 6.58539E+05
 -1       171-1.08499E-07 1.14262E-07-1.48546E-07 1.53983E+06 2.03272E-08 5.99917E+05
 -1       175-2.36323E-08-1.37836E-07-1.05938E-08 1.06854E+06 9.16953E-08 5.43857E+05
 -1       179 3.19909E-07 4.82250E-07 4.38915E-07 6.49358E+05-6.64695E-08 4.55523E+05
 -1       183-1.31066E-06-7.66289E-07-3.95579E-07 3.17576E+05 3.31929E-08 3.34922E+05
 -1       187 5.94271E-07 4.21434E-07 3.86306E-07 9.91726E+04 1.27348E-07 1.78893E+05
 -1       192 3.33910E+06 5.99084E+05 3.15519E+07-2.12342E-07 3.54621E-06 1.59317E+06
 -1       196 5.80924E+06 3.09765E+06 2.80007E+07-6.61239E-08 3.59860E-06-2.67569E+05
 -1       200 3.79657E+06 1.94450E+06 2.05147E+07 6.77537E-08 3.37795E-06-1.09702E+04
 -1       204 2.76684E+06 1.43269E+06 1.43824E+07 9.53441E-08 2.87835E-06-4.86413E+04
 -1       208 1.71997E+06 9.04829E+05 8.87020E+06 2.08121E-07 2.34247E-06-3.53722E+04
 -1       212 9.18013E+05 5.01539E+05 4.51226E+06-4.36994E-08 1.91780E-06-2.78669E+04
 -1       216 3.94431E+05 2.41480E+05 1.65193E+06 4.66134E-08 1.35310E-06-1.54748E+04
 -1       222 7.47386E-08 4.46453E-08-2.57627E-07-2.42610E-07 8.27729E-08 1.25467E+06
 -1       228-9.53441E-08-2.27301E-08-3.23897E-07 3.43425E-08 6.00799E-08 5.59919E+04
 -1       234-4.86500E-07-9.90112E-08-4.80271E-07 7.68341E-09 7.94545E-08 1.37361E+05
 -1       240 6.90343E-08-1.88593E-08-2.37313E-07 1.57219E-07 3.87698E-08 1.17581E+05
 -1       246-3.15747E-07 6.04923E-08-3.31274E-07 1.84038E-07 5.08260E-09 9.84364E+04
 -1       252 8.12011E-07 1.59591E-07 3.81333E-08-4.34666E-08-2.21640E-08 7.20353E+04
 -1       258-6.38142E-07-2.67350E-07-2.52987E-07 8.56053E-08-5.49596E-08 3.82530E+04
 -3
    1PSTEP                         3           1           1          
    1PGM                1.000000E+00                                  
    1PGK                9.752896E+09                                  
    1PHID                         -1                                  
    1PSUBC                         0                                  
    1PMODE                         1                                  
  100CL  101 15717.62535          81                     2    1MODAL      1
 -4  ERROR       1    1
 -5  STR(%)      1    1    0    0
 -1         1 5.86539E+01
 -1         2 5.86539E+01
 -1         3 5.86539E+01
 -1         4 5.86539E+01
 -1         5 5.38567E+01
 -1         6 5.38567E+01
 -1         7 5.38567E+01
 -1         8 5.38567E+01
 -1        10 5.86539E+01
 -1        13 5.86539E+01
 -1        16 5.86539E+01
 -1        19 5.86539E+01
 -1        22 5.38567E+01
 -1        25 5.38567E+01
 -1        28 5.38567E+01
 -1        31 5.38567E+01
 -1        34 5.86539E+01
 -1        36 5.55592E+01
 -1        38 5.66094E+01
 -1        40 5.84461E+01
 -1        42 6.03654E+01
 -1        44 6.03736E+01
 -1        46 6.03736E+01
 -1        49 6.03736E+01
 -1        51 6.03736E+01
 -1        53 6.03654E+01
 -1        55 5.84461E+01
 -1        57 5.66094E+01
 -1        59 5.55592E+01
 -1        61 5.86539E+01
 -1        64 5.86539E+01
 -1        66 5.55592E+01
 -1        68 5.66094E+01
 -1        70 5.84461E+01
 -1        72 6.03654E+01
 -1        74 6.03736E+01
 -1        76 6.03736E+01
 -1        79 5.86539E+01
 -1        81 5.55592E+01
 -1        83 5.66094E+01
 -1        85 5.84461E+01
 -1        87 6.03654E+01
 -1        89 6.03736E+01
 -1        91 6.03736E+01
 -1        95 5.86539E+01
 -1       100 5.38567E+01
 -1       105 5.86539E+01
 -1       109 5.55592E+01
 -1       113 5.66094E+01
 -1       117 5.84461E+01
 -1       121 6.03654E+01
 -1       125 6.03736E+01
 -1       129 6.03736E+01
 -1       134 5.86539E+01
 -1       138 5.55592E+01
 -1       142 5.66094E+01
 -1       146 5.84461E+01
 -1       150 6.03654E+01
 -1       154 6.03736E+01
 -1       158 6.03736E+01
 -1       163 5.86539E+01
 -1       167 5.55592E+01
 -1       171 5.66094E+01
 -1       175 5.84461E+01
 -1       179 6.03654E+01
 -1       183 6.03736E+01
 -1       187 6.03736E+01
 -1       192 5.86539E+01
 -1       196 5.55592E+01
 -1       200 5.66094E+01
 -1       204 5.84461E+01
 -1       208 6.03654E+01
 -1       212 6.03736E+01
 -1       216 6.03736E+01
 -1       222 5.86539E+01
 -1       228 5.55592E+01
 -1       234 5.66094E+01
 -1       240 5.84461E+01
 -1       246 6.03654E+01
 -1       252 6.03736E+01
 -1       258 6.03736E+01
 -3
    1PSTEP                         4           1           1          
    1PGM                1.000000E+00                                  
    1PGK                1.802265E+10                                  
    1PHID                         -1                                  
    1PSUBC                         0                                  
    1PMODE                         2                                  
  100CL  102 21366.30468          81                     2    2MODAL      1
 -4  DISP        4    1
 -5  D1          1    2    1    0
 -5  D2          1    2    2    0
 -5  D3          1    2    3    0
 -5  ALL         1    2    0    0    1ALL
 -1         1 0.00000E+00 0.00000E+00 0.00000E+00
 -1         2 0.00000E+00 0.00000E+00 0.00000E+00
 -1         3 0.00000E+00 0.00000E+00 0.00000E+00
 -1         4 0.00000E+00 0.00000E+00 0.00000E+00
 -1         5-2.76190E-01-6.46296E+03-8.21387E+02
 -1         6 2.76190E-01-6.46296E+03-8.21387E+02
 -1         7-2.76190E-01-6.46296E+03 8.21387E+02
 -1         8 2.76190E-01-6.46296E+03 8.21387E+02
 -1        10 0.00000E+00 0.00000E+00 0.00000E+00
 -1        13 0.00000E+00 0.00000E+00 0.00000E+00
 -1        16 0.00000E+00 0.00000E+00 0.00000E+00
 -1        19 0.00000E+00 0.00000E+00 0.00000E+00
 -1        22-6.33662E-11-6.46308E+03-8.21568E+02
 -1        25 6.84395E-11-6.46275E+03-1.65414E-11
 -1        28 1.96451E-10-6.46308E+03 8.21568E+02
 -1        31 6.75300E-11-6.46275E+03 1.13687E-12
 -1        34 4.26636E+01-1.90583E+02-2.22420E+02
 -1        36 2.77705E+01-6.50376E+02-4.20791E+02
 -1        38 2.14700E+01-1.34896E+03-5.74566E+02
 -1        40 1.48855E+01-2.22026E+03-6.85835E+02
 -1        42 9.08435E+00-3.21107E+03-7.59017E+02
 -1        44 4.47271E+00-4.27237E+03-8.00074E+02
 -1        46 1.41529E+00-5.36517E+03-8.17331E+02
 -1        49-1.41529E+00-5.36517E+03-8.17331E+02
 -1        51-4.47271E+00-4.27237E+03-8.00074E+02
 -1        53-9.08435E+00-3.21107E+03-7.59017E+02
 -1        55-1.48855E+01-2.22026E+03-6.85835E+02
 -1        57-2.14700E+01-1.34896E+03-5.74566E+02
 -1        59-2.77705E+01-6.50376E+02-4.20791E+02
 -1        61-4.26636E+01-1.90583E+02-2.22420E+02
 -1        64-4.26636E+01-1.90583E+02 2.22420E+02
 -1        66-2.77705E+01-6.50376E+02 4.20791E+02
 -1        68-2.14700E+01-1.34896E+03 5.74566E+02
 -1        70-1.48855E+01-2.22026E+03 6.85835E+02
 -1        72-9.08435E+00-3.21107E+03 7.59017E+02
 -1        74-4.47271E+00-4.27237E+03 8.00074E+02
 -1        76-1.41529E+00-5.36517E+03 8.17331E+02
 -1        79 4.26636E+01-1.90583E+02 2.22420E+02
 -1        81 2.77705E+01-6.50376E+02 4.20791E+02
 -1        83 2.14700E+01-1.34896E+03 5.74566E+02
 -1        85 1.48855E+01-2.22026E+03 6.85835E+02
 -1        87 9.08435E+00-3.21107E+03 7.59017E+02
 -1        89 4.47271E+00-4.27237E+03 8.00074E+02
 -1        91 1.41529E+00-5.36517E+03 8.17331E+02
 -1        95 0.00000E+00 0.00000E+00 0.00000E+00
 -1       100 6.83258E-11-6.46289E+03-7.27596E-12
 -1       105-1.76215E-11-2.04222E+02-2.18545E+02
 -1       109-3.72893E-11-6.59941E+02-4.23845E+02
 -1       113-5.54792E-11-1.35601E+03-5.75638E+02
 -1       117-7.04858E-11-2.22526E+03-6.87112E+02
 -1       121-7.69660E-11-3.21409E+03-7.60066E+02
 -1       125-7.98082E-11-4.27387E+03-8.00850E+02
 -1       129-7.53744E-11-5.36564E+03-8.17736E+02
 -1       134-5.68434E-13-1.60968E+02-9.09495E-13
 -1       138-9.09495E-13-6.32788E+02-2.89901E-12
 -1       142 9.09495E-13-1.33427E+03-5.63460E-12
 -1       146 5.11591E-12-2.21045E+03-9.13047E-12
 -1       150 1.55751E-11-3.20497E+03-1.21645E-11
 -1       154 3.23617E-11-4.26938E+03-1.50635E-11
 -1       158 4.67821E-11-5.36422E+03-1.63141E-11
 -1       163 1.54614E-11-2.04222E+02 2.18545E+02
 -1       167 3.38787E-11-6.59941E+02 4.23845E+02
 -1       171 5.47971E-11-1.35601E+03 5.75638E+02
 -1       175 7.99787E-11-2.22526E+03 6.87112E+02
 -1       179 1.08059E-10-3.21409E+03 7.60066E+02
 -1       183 1.42336E-10-4.27387E+03 8.00850E+02
 -1       187 1.73941E-10-5.36564E+03 8.17736E+02
 -1       192-1.13687E-12-1.60968E+02-1.59162E-12
 -1       196-1.59162E-12-6.32788E+02-2.50111E-12
 -1       200 2.27374E-13-1.33427E+03-2.33058E-12
 -1       204 5.34328E-12-2.21045E+03-1.53477E-12
 -1       208 1.53477E-11-3.20497E+03 5.68434E-13
 -1       212 3.18607E-11-4.26938E+03 1.81899E-12
 -1       216 4.80895E-11-5.36422E+03 1.47793E-12
 -1       222-9.09495E-13-1.74475E+02-1.19815E-12
 -1       228-1.13687E-12-6.41976E+02-2.77112E-12
 -1       234 0.00000E+00-1.34155E+03-3.97904E-12
 -1       240 5.00222E-12-2.21538E+03-5.20117E-12
 -1       246 1.51772E-11-3.20804E+03-5.85487E-12
 -1       252 3.11928E-11-4.27091E+03-6.59384E-12
 -1       258 4.86011E-11-5.36473E+03-7.50333E-12
 -3
    1PSTEP                         5           1           1          
    1PGM                1.000000E+00                                  
    1PGK                1.802265E+10                                  
    1PHID                         -1                                  
    1PSUBC                         0                                  
    1PMODE                         2                                  
  100CL  102 21366.30468          81                     2    2MODAL      1
 -4  STRESS      6    1
 -5  SXX         1    4    1    1
 -5  SYY         1    4    2    2
 -5  SZZ         1    4    3    3
 -5  SXY         1    4    1    2
 -5  SYZ         1    4    2    3
 -5  SZX         1    4    3    1
 -1         1-2.69467E+07-2.69467E+07-6.28752E+07 6.34258E+00-1.53931E+07-3.44585E+06
 -1         2-2.69467E+07-2.69467E+07-6.28752E+07-6.34258E+00-1.53931E+07 3.44585E+06
 -1         3 2.69467E+07 2.69467E+07 6.28752E+07-6.34258E+00-1.53931E+07-3.44585E+06
 -1         4 2.69467E+07 2.69467E+07 6.28752E+07 6.34258E+00-1.53931E+07 3.44585E+06
 -1         5-3.01530E+05-3.45933E+05-1.04581E+06 1.01649E+04-2.10781E+05 6.27184E+04
 -1         6-3.01530E+05-3.45933E+05-1.04581E+06-1.01649E+04-2.10781E+05-6.27184E+04
 -1         7 3.01530E+05 3.45933E+05 1.04581E+06-1.01649E+04-2.10781E+05 6.27184E+04
 -1         8 3.01530E+05 3.45933E+05 1.04581E+06 1.01649E+04-2.10781E+05-6.27184E+04
 -1        10-2.64772E+07-2.64773E+07-6.17798E+07 6.54836E-11-1.64946E+07-1.42400E-06