    1C
    1UUSER                                                              
    1UDATE              14.march.2024                                   
    1UTIME              09:54:34                                        
    1UHOST                                                              
    1UPGM               CalculiX                                        
    1UVERSION           Version DEVELOPMENT                             
    1UCOMPILETIME       Thu 14 Mar 2024 09:49:15 AM CET                    
    1UDIR                                                               
    1UDBN                                                               
    1UMAT    1C355                                                      
    2C                          1001                                     1
 -1         1 1.00000E+01-1.49699E+01 2.01445E+02
 -1         2 7.50000E+00-1.74693E+01 2.01196E+02
 -1         3 7.50000E+00-1.24616E+01 2.01583E+02
 -1         4 1.00000E+01-1.03958E+01 2.01732E+02
 -1         5 1.00000E+01-1.48958E+01 2.00447E+02
 -1         6 7.50000E+00-1.73828E+01 2.00200E+02
 -1         7 7.50000E+00-1.23999E+01 2.00585E+02
 -1         8 1.00000E+01-1.03444E+01 2.00734E+02
 -1         9 7.50000E+00-7.44523E+00 2.01843E+02
 -1        10 1.00000E+01-5.81638E+00 2.01916E+02
 -1        11 7.50000E+00-7.40838E+00 2.00844E+02
 -1        12 1.00000E+01-5.78758E+00 2.00917E+02
 -1        13 1.00000E+01-1.48217E+01 1.99450E+02
 -1        14 7.50000E+00-1.72963E+01 1.99204E+02
 -1        15 7.50000E+00-1.23382E+01 1.99587E+02
 -1        16 1.00000E+01-1.02929E+01 1.99735E+02
 -1        17 7.50000E+00-7.37152E+00 1.99845E+02
 -1        18 1.00000E+01-5.75879E+00 1.99917E+02
 -1        19 5.00000E+00-1.99687E+01 2.00948E+02
 -1        20 5.00000E+00-1.45273E+01 2.01434E+02
 -1        21 5.00000E+00-1.98698E+01 1.99953E+02
 -1        22 5.00000E+00-1.44554E+01 2.00437E+02
 -1        23 5.00000E+00-9.07409E+00 2.01770E+02
 -1        24 5.00000E+00-9.02917E+00 2.00771E+02
 -1        25 5.00000E+00-1.97710E+01 1.98958E+02
 -1        26 5.00000E+00-1.43835E+01 1.99440E+02
 -1        27 5.00000E+00-8.98425E+00 1.99772E+02
 -1        28 2.50000E+00-2.24681E+01 2.00699E+02
 -1        29 2.50000E+00-1.65931E+01 2.01285E+02
 -1        30 2.50000E+00-2.23569E+01 1.99706E+02
 -1        31 2.50000E+00-1.65110E+01 2.00289E+02
 -1        32 2.50000E+00-1.07029E+01 2.01696E+02
 -1        33 2.50000E+00-1.06500E+01 2.00698E+02
 -1        34 2.50000E+00-2.22456E+01 1.98712E+02
 -1        35 2.50000E+00-1.64288E+01 1.99292E+02
 -1        36 2.50000E+00-1.05970E+01 1.99699E+02
 -1        37 0.00000E+00-2.49675E+01 2.00451E+02
 -1        38 0.00000E+00-1.86589E+01 2.01136E+02
 -1        39 0.00000E+00-2.48439E+01 1.99459E+02
 -1        40 8.88178E-16-1.85665E+01 2.00141E+02
 -1        41 0.00000E+00-1.23318E+01 2.01623E+02
 -1        42 0.00000E+00-1.22708E+01 2.00625E+02
 -1        43 0.00000E+00-2.47203E+01 1.98466E+02
 -1        44 0.00000E+00-1.84741E+01 1.99145E+02
 -1        45 0.00000E+00-1.22097E+01 1.99627E+02
 -1        46 1.00000E+01-5.22936E+00 5.97717E+01
 -1        47 1.00000E+01-6.10091E+00 6.97336E+01
 -1        48 1.00000E+01-4.88296E+00 6.98295E+01
 -1        49 1.00000E+01-4.18540E+00 5.98538E+01
 -1        50 7.50000E+00-5.22936E+00 5.97717E+01
 -1        51 7.50000E+00-6.20949E+00 6.97232E+01
 -1        52 7.50000E+00-4.99171E+00 6.98209E+01
 -1        53 7.50000E+00-4.18540E+00 5.98538E+01
 -1        54 1.00000E+01-3.66352E+00 6.99041E+01
 -1        55 1.00000E+01-3.14016E+00 5.99178E+01
 -1        56 7.50000E+00-3.77240E+00 6.98974E+01
 -1        57 7.50000E+00-3.14016E+00 5.99178E+01
 -1        58 5.00000E+00-5.22936E+00 5.97717E+01
 -1        59 5.00000E+00-6.31807E+00 6.97127E+01
 -1        60 5.00000E+00-5.10045E+00 6.98124E+01
 -1        61 5.00000E+00-4.18540E+00 5.98538E+01
 -1        62 5.00000E+00-3.88128E+00 6.98908E+01
 -1        63 5.00000E+00-3.14016E+00 5.99178E+01
 -1        64 2.50000E+00-5.22936E+00 5.97717E+01
 -1        65 2.50000E+00-6.42665E+00 6.97023E+01
 -1        66 2.50000E+00-5.20920E+00 6.98038E+01
 -1        67 2.50000E+00-4.18540E+00 5.98538E+01
 -1        68 2.50000E+00-3.99015E+00 6.98841E+01
 -1        69 2.50000E+00-3.14016E+00 5.99178E+01
 -1        70 0.00000E+00-5.22936E+00 5.97717E+01
 -1        71 0.00000E+00-6.53523E+00 6.96918E+01
 -1        72 0.00000E+00-5.31794E+00 6.97952E+01
 -1        73 0.00000E+00-4.18540E+00 5.98538E+01
 -1        74 0.00000E+00-4.09903E+00 6.98774E+01
 -1        75 0.00000E+00-3.14016E+00 5.99178E+01
 -1        76 1.00000E+01-6.97247E+00 7.96956E+01
 -1        77 1.00000E+01-5.58052E+00 7.98051E+01
 -1        78 7.50000E+00-7.18962E+00 7.96747E+01
 -1        79 7.50000E+00-5.79801E+00 7.97880E+01
 -1        80 1.00000E+01-4.18688E+00 7.98904E+01
 -1        81 7.50000E+00-4.40464E+00 7.98770E+01
 -1        82 5.00000E+00-7.40678E+00 7.96538E+01
 -1        83 5.00000E+00-6.01550E+00 7.97709E+01
 -1        84 5.00000E+00-4.62239E+00 7.98637E+01
 -1        85 2.50000E+00-7.62394E+00 7.96328E+01
 -1        86 2.50000E+00-6.23299E+00 7.97538E+01
 -1        87 2.50000E+00-4.84015E+00 7.98504E+01
 -1        88 0.00000E+00-7.84110E+00 7.96119E+01
 -1        89 8.88178E-16-6.45048E+00 7.97367E+01
 -1        90 0.00000E+00-5.05791E+00 7.98371E+01
 -1        91 1.00000E+01-7.84402E+00 8.96575E+01
 -1        92 1.00000E+01-6.27808E+00 8.97808E+01
 -1        93 7.50000E+00-8.16976E+00 8.96262E+01
 -1        94 7.50000E+00-6.60432E+00 8.97551E+01
 -1        95 1.00000E+01-4.71024E+00 8.98767E+01
 -1        96 7.50000E+00-5.03687E+00 8.98567E+01
 -1        97 5.00000E+00-8.49549E+00 8.95948E+01
 -1        98 5.00000E+00-6.93056E+00 8.97294E+01
 -1        99 5.00000E+00-5.36351E+00 8.98367E+01
 -1       100 2.50000E+00-8.82123E+00 8.95634E+01
 -1       101 2.50000E+00-7.25679E+00 8.97037E+01
 -1       102 2.50000E+00-5.69014E+00 8.98167E+01
 -1       103 0.00000E+00-9.14697E+00 8.95321E+01
 -1       104-8.88178E-16-7.58303E+00 8.96781E+01
 -1       105 0.00000E+00-6.01678E+00 8.97967E+01
 -1       106 1.00000E+01-8.71557E+00 9.96195E+01
 -1       107 1.00000E+01-6.97565E+00 9.97564E+01
 -1       108 7.50000E+00-9.14989E+00 9.95777E+01
 -1       109 7.50000E+00-7.41063E+00 9.97222E+01
 -1       110 1.00000E+01-5.23360E+00 9.98630E+01
 -1       111 7.50000E+00-5.66911E+00 9.98363E+01
 -1       112 5.00000E+00-9.58420E+00 9.95358E+01
 -1       113 5.00000E+00-7.84561E+00 9.96879E+01
 -1       114 5.00000E+00-6.10463E+00 9.98097E+01
 -1       115 2.50000E+00-1.00185E+01 9.94940E+01
 -1       116 2.50000E+00-8.28059E+00 9.96537E+01
 -1       117 2.50000E+00-6.54014E+00 9.97830E+01
 -1       118 0.00000E+00-1.04528E+01 9.94522E+01
 -1       119 0.00000E+00-8.71557E+00 9.96195E+01
 -1       120 0.00000E+00-6.97565E+00 9.97564E+01
 -1       121 7.50000E+00-6.74063E+00 2.01868E+02
 -1       122 1.00000E+01-5.11153E+00 2.01935E+02
 -1       123 7.50000E+00-6.70726E+00 2.00868E+02
 -1       124 1.00000E+01-5.08622E+00 2.00936E+02
 -1       125 7.50000E+00-6.03594E+00 2.01890E+02
 -1       126 1.00000E+01-4.40661E+00 2.01952E+02
 -1       127 7.50000E+00-6.00606E+00 2.00891E+02
 -1       128 1.00000E+01-4.38480E+00 2.00952E+02
 -1       129 7.50000E+00-6.67389E+00 1.99869E+02
 -1       130 1.00000E+01-5.06092E+00 1.99936E+02
 -1       131 7.50000E+00-5.97617E+00 1.99891E+02
 -1       132 1.00000E+01-4.36298E+00 1.99952E+02
 -1       133 5.00000E+00-8.36973E+00 2.01800E+02
 -1       134 5.00000E+00-8.32829E+00 2.00801E+02
 -1       135 5.00000E+00-7.66527E+00 2.01828E+02
 -1       136 5.00000E+00-7.62732E+00 2.00829E+02
 -1       137 5.00000E+00-8.28686E+00 1.99802E+02
 -1       138 5.00000E+00-7.58937E+00 1.99830E+02
 -1       139 2.50000E+00-9.99883E+00 2.01733E+02
 -1       140 2.50000E+00-9.94933E+00 2.00734E+02
 -1       141 2.50000E+00-9.29459E+00 2.01766E+02
 -1       142 2.50000E+00-9.24858E+00 2.00767E+02
 -1       143 2.50000E+00-9.89983E+00 1.99735E+02
 -1       144 2.50000E+00-9.20257E+00 1.99769E+02
 -1       145 0.00000E+00-1.16279E+01 2.01665E+02
 -1       146 0.00000E+00-1.15704E+01 2.00667E+02
 -1       147 0.00000E+00-1.09239E+01 2.01704E+02
 -1       148 0.00000E+00-1.08698E+01 2.00706E+02
 -1       149 0.00000E+00-1.15128E+01 1.99668E+02
 -1       150 0.00000E+00-1.08158E+01 1.99707E+02
 -1       151 1.00000E+01-5.29925E+00 1.12370E+02
 -1       152 1.00000E+01-4.44931E+00 1.12409E+02
 -1       153 1.00000E+01-4.36194E+00 9.99048E+01
 -1       154 7.50000E+00-5.88191E+00 1.12337E+02
 -1       155 7.50000E+00-5.03220E+00 1.12380E+02
 -1       156 7.50000E+00-4.79767E+00 9.98820E+01
 -1       157 1.00000E+01-3.59908E+00 1.12441E+02
 -1       158 1.00000E+01-3.48995E+00 9.99391E+01
 -1       159 7.50000E+00-4.18215E+00 1.12416E+02
 -1       160 7.50000E+00-3.92586E+00 9.99200E+01
 -1       161 5.00000E+00-6.46458E+00 1.12305E+02
 -1       162 5.00000E+00-5.61508E+00 1.12352E+02
 -1       163 5.00000E+00-5.23340E+00 9.98591E+01
 -1       164 5.00000E+00-4.76522E+00 1.12392E+02
 -1       165 5.00000E+00-4.36177E+00 9.99010E+01
 -1       166 2.50000E+00-7.04724E+00 1.12273E+02
 -1       167 2.50000E+00-6.19797E+00 1.12324E+02
 -1       168 2.50000E+00-5.66913E+00 9.98363E+01
 -1       169 2.50000E+00-5.34830E+00 1.12368E+02
 -1       170 2.50000E+00-4.79769E+00 9.98820E+01
 -1       171 0.00000E+00-7.62991E+00 1.12240E+02
 -1       172 0.00000E+00-6.78085E+00 1.12295E+02
 -1       173 0.00000E+00-6.10486E+00 9.98135E+01
 -1       174 0.00000E+00-5.93137E+00 1.12343E+02
 -1       175 0.00000E+00-5.23360E+00 9.98630E+01
 -1       176 1.00000E+01-5.36490E+00 1.24876E+02
 -1       177 1.00000E+01-4.53668E+00 1.24913E+02
 -1       178 7.50000E+00-6.09471E+00 1.24838E+02
 -1       179 7.50000E+00-5.26672E+00 1.24879E+02
 -1       180 1.00000E+01-3.70821E+00 1.24942E+02
 -1       181 7.50000E+00-4.43844E+00 1.24913E+02
 -1       182 5.00000E+00-6.82453E+00 1.24800E+02
 -1       183 5.00000E+00-5.99676E+00 1.24845E+02
 -1       184 5.00000E+00-5.16867E+00 1.24883E+02
 -1       185 2.50000E+00-7.55435E+00 1.24762E+02
 -1       186 2.50000E+00-6.72680E+00 1.24811E+02
 -1       187 2.50000E+00-5.89891E+00 1.24854E+02
 -1       188 0.00000E+00-8.28417E+00 1.24724E+02
 -1       189 8.88178E-16-7.45684E+00 1.24777E+02
 -1       190 0.00000E+00-6.62914E+00 1.24824E+02
 -1       191 1.00000E+01-5.43055E+00 1.37383E+02
 -1       192 1.00000E+01-4.62406E+00 1.37417E+02
 -1       193 7.50000E+00-6.30752E+00 1.37339E+02
 -1       194 7.50000E+00-5.50125E+00 1.37377E+02
 -1       195 1.00000E+01-3.81734E+00 1.37444E+02
 -1       196 7.50000E+00-4.69473E+00 1.37409E+02
 -1       197 5.00000E+00-7.18448E+00 1.37296E+02
 -1       198 5.00000E+00-6.37845E+00 1.37338E+02
 -1       199 5.00000E+00-5.57212E+00 1.37374E+02
 -1       200 2.50000E+00-8.06145E+00 1.37252E+02
 -1       201 2.50000E+00-7.25564E+00 1.37298E+02
 -1       202 2.50000E+00-6.44952E+00 1.37339E+02
 -1       203 0.00000E+00-8.93842E+00 1.37208E+02
 -1       204 0.00000E+00-8.13284E+00 1.37259E+02
 -1       205 0.00000E+00-7.32691E+00 1.37305E+02
 -1       206 1.00000E+01-5.49619E+00 1.49890E+02
 -1       207 1.00000E+01-4.71143E+00 1.49920E+02
 -1       208 7.50000E+00-6.52032E+00 1.49840E+02
 -1       209 7.50000E+00-5.73578E+00 1.49876E+02
 -1       210 1.00000E+01-3.92647E+00 1.49946E+02
 -1       211 7.50000E+00-4.95102E+00 1.49906E+02
 -1       212 5.00000E+00-7.54444E+00 1.49791E+02
 -1       213 5.00000E+00-6.76013E+00 1.49831E+02
 -1       214 5.00000E+00-5.97557E+00 1.49865E+02
 -1       215 2.50000E+00-8.56856E+00 1.49741E+02
 -1       216 2.50000E+00-7.78448E+00 1.49786E+02
 -1       217 2.50000E+00-7.00013E+00 1.49825E+02
 -1       218 0.00000E+00-9.59268E+00 1.49692E+02
 -1       219 0.00000E+00-8.80883E+00 1.49741E+02
 -1       220 0.00000E+00-8.02468E+00 1.49785E+02
 -1       221 1.00000E+01-5.56184E+00 1.62397E+02
 -1       222 1.00000E+01-4.79880E+00 1.62424E+02
 -1       223 7.50000E+00-6.73312E+00 1.62341E+02
 -1       224 7.50000E+00-5.97031E+00 1.62374E+02
 -1       225 1.00000E+01-4.03559E+00 1.62447E+02
 -1       226 7.50000E+00-5.20731E+00 1.62402E+02
 -1       227 5.00000E+00-7.90439E+00 1.62286E+02
 -1       228 5.00000E+00-7.14181E+00 1.62324E+02
 -1       229 5.00000E+00-6.37902E+00 1.62357E+02
 -1       230 2.50000E+00-9.07566E+00 1.62231E+02
 -1       231 2.50000E+00-8.31332E+00 1.62273E+02
 -1       232 2.50000E+00-7.55074E+00 1.62311E+02
 -1       233 0.00000E+00-1.02469E+01 1.62176E+02
 -1       234-1.77636E-15-9.48483E+00 1.62223E+02
 -1       235 0.00000E+00-8.72245E+00 1.62266E+02
 -1       236 1.00000E+01-5.62749E+00 1.74904E+02
 -1       237 1.00000E+01-4.88617E+00 1.74928E+02
 -1       238 7.50000E+00-6.94592E+00 1.74842E+02
 -1       239 7.50000E+00-6.20483E+00 1.74872E+02
 -1       240 1.00000E+01-4.14472E+00 1.74949E+02
 -1       241 7.50000E+00-5.46360E+00 1.74898E+02
 -1       242 5.00000E+00-8.26434E+00 1.74781E+02
 -1       243 5.00000E+00-7.52350E+00 1.74816E+02
 -1       244 5.00000E+00-6.78247E+00 1.74848E+02
 -1       245 2.50000E+00-9.58277E+00 1.74720E+02
 -1       246 2.50000E+00-8.84216E+00 1.74761E+02
 -1       247 2.50000E+00-8.10135E+00 1.74797E+02
 -1       248 0.00000E+00-1.09012E+01 1.74659E+02
 -1       249 0.00000E+00-1.01608E+01 1.74705E+02
 -1       250 0.00000E+00-9.42022E+00 1.74746E+02
 -1       251 1.00000E+01-5.69314E+00 1.87410E+02
 -1       252 1.00000E+01-4.97354E+00 1.87432E+02
 -1       253 7.50000E+00-7.15872E+00 1.87344E+02
 -1       254 7.50000E+00-6.43936E+00 1.87371E+02
 -1       255 1.00000E+01-4.25385E+00 1.87451E+02
 -1       256 7.50000E+00-5.71989E+00 1.87395E+02
 -1       257 5.00000E+00-8.62430E+00 1.87277E+02
 -1       258 5.00000E+00-7.90518E+00 1.87309E+02
 -1       259 5.00000E+00-7.18592E+00 1.87339E+02
 -1       260 2.50000E+00-1.00899E+01 1.87210E+02
 -1       261 2.50000E+00-9.37099E+00 1.87248E+02
 -1       262 2.50000E+00-8.65196E+00 1.87283E+02
 -1       263 0.00000E+00-1.15555E+01 1.87143E+02
 -1       264 0.00000E+00-1.08368E+01 1.87187E+02
 -1       265 0.00000E+00-1.01180E+01 1.87227E+02
 -1       266 1.00000E+01-3.05335E+00 6.99334E+01
 -1       267 1.00000E+01-2.61715E+00 5.99429E+01
 -1       268 7.50000E+00-3.16228E+00 6.99277E+01
 -1       269 7.50000E+00-2.61715E+00 5.99429E+01
 -1       270 1.00000E+01-2.44294E+00 6.99574E+01
 -1       271 1.00000E+01-2.09394E+00 5.99635E+01
 -1       272 7.50000E+00-2.55192E+00 6.99526E+01
 -1       273 7.50000E+00-2.09394E+00 5.99635E+01
 -1       274 5.00000E+00-3.27121E+00 6.99220E+01
 -1       275 5.00000E+00-2.61715E+00 5.99429E+01
 -1       276 5.00000E+00-2.66090E+00 6.99478E+01
 -1       277 5.00000E+00-2.09394E+00 5.99635E+01
 -1       278 2.50000E+00-3.38014E+00 6.99163E+01
 -1       279 2.50000E+00-2.61715E+00 5.99429E+01
 -1       280 2.50000E+00-2.76988E+00 6.99431E+01
 -1       281 2.50000E+00-2.09394E+00 5.99635E+01
 -1       282 0.00000E+00-3.48908E+00 6.99105E+01
 -1       283 0.00000E+00-2.61715E+00 5.99429E+01
 -1       284 0.00000E+00-2.87885E+00 6.99383E+01
 -1       285 0.00000E+00-2.09394E+00 5.99635E+01
 -1       286 1.00000E+01-3.48955E+00 7.99239E+01
 -1       287 7.50000E+00-3.70741E+00 7.99124E+01
 -1       288 1.00000E+01-2.79194E+00 7.99513E+01
 -1       289 7.50000E+00-3.00990E+00 7.99417E+01
 -1       290 5.00000E+00-3.92527E+00 7.99010E+01
 -1       291 5.00000E+00-3.22786E+00 7.99322E+01
 -1       292 2.50000E+00-4.14314E+00 7.98896E+01
 -1       293 2.50000E+00-3.44581E+00 7.99227E+01
 -1       294 0.00000E+00-4.36100E+00 7.98782E+01
 -1       295 0.00000E+00-3.66377E+00 7.99132E+01
 -1       296 1.00000E+01-3.92574E+00 8.99143E+01
 -1       297 7.50000E+00-4.25254E+00 8.98972E+01
 -1       298 1.00000E+01-3.14095E+00 8.99452E+01
 -1       299 7.50000E+00-3.46788E+00 8.99309E+01
 -1       300 5.00000E+00-4.57934E+00 8.98801E+01
 -1       301 5.00000E+00-3.79482E+00 8.99166E+01
 -1       302 2.50000E+00-4.90613E+00 8.98630E+01
 -1       303 2.50000E+00-4.12175E+00 8.99024E+01
 -1       304 8.88178E-16-5.23293E+00 8.98458E+01
 -1       305 0.00000E+00-4.44869E+00 8.98881E+01
 -1       306 7.50000E+00-2.95187E+00 2.01947E+02
 -1       307 1.00000E+01-8.81389E-01 2.01998E+02
 -1       308 7.50000E+00-2.93726E+00 2.00947E+02
 -1       309 1.00000E+01-8.77026E-01 2.00998E+02
 -1       310 7.50000E+00 1.32567E-01 2.01953E+02
 -1       311 1.00000E+01 2.64410E+00 2.01983E+02
 -1       312 7.50000E+00 1.31911E-01 2.00953E+02
 -1       313 1.00000E+01 2.63101E+00 2.00983E+02
 -1       314 7.50000E+00-2.92265E+00 1.99947E+02
 -1       315 1.00000E+01-8.72663E-01 1.99998E+02
 -1       316 7.50000E+00 1.31255E-01 1.99954E+02
 -1       317 1.00000E+01 2.61792E+00 1.99983E+02
 -1       318 5.00000E+00-5.02236E+00 2.01895E+02
 -1       319 5.00000E+00-4.99749E+00 2.00896E+02
 -1       320 5.00000E+00-2.37896E+00 2.01924E+02
 -1       321 5.00000E+00-2.36719E+00 2.00924E+02
 -1       322 5.00000E+00-4.97263E+00 1.99896E+02
 -1       323 5.00000E+00-2.35541E+00 1.99924E+02
 -1       324 2.50000E+00-7.09284E+00 2.01844E+02
 -1       325 2.50000E+00-7.05773E+00 2.00844E+02
 -1       326 2.50000E+00-4.89050E+00 2.01894E+02
 -1       327 2.50000E+00-4.86629E+00 2.00894E+02
 -1       328 2.50000E+00-7.02261E+00 1.99845E+02
 -1       329 2.50000E+00-4.84207E+00 1.99895E+02
 -1       330 0.00000E+00-9.16332E+00 2.01792E+02
 -1       331 8.88178E-16-9.11796E+00 2.00793E+02
 -1       332 0.00000E+00-7.40203E+00 2.01864E+02
 -1       333 0.00000E+00-7.36539E+00 2.00865E+02
 -1       334 0.00000E+00-9.07260E+00 1.99794E+02
 -1       335 0.00000E+00-7.32874E+00 1.99866E+02
 -1       336 1.00000E+01-1.22166E+00 6.99893E+01
 -1       337 1.00000E+01-1.04713E+00 5.99909E+01
 -1       338 7.50000E+00-1.33070E+00 6.99865E+01
 -1       339 7.50000E+00-1.04713E+00 5.99909E+01
 -1       340 1.00000E+01 4.28626E-15 7.00000E+01
 -1       341 1.00000E+01 3.67394E-15 6.00000E+01
 -1       342 7.50000E+00-1.09077E-01 6.99990E+01
 -1       343 7.50000E+00 3.67394E-15 6.00000E+01
 -1       344 5.00000E+00-1.43975E+00 6.99836E+01
 -1       345 5.00000E+00-1.04713E+00 5.99909E+01
 -1       346 5.00000E+00-2.18155E-01 6.99981E+01
 -1       347 5.00000E+00 3.67394E-15 6.00000E+01
 -1       348 2.50000E+00-1.54879E+00 6.99808E+01
 -1       349 2.50000E+00-1.04713E+00 5.99909E+01
 -1       350 2.50000E+00-3.27233E-01 6.99971E+01
 -1       351 2.50000E+00 3.67394E-15 6.00000E+01
 -1       352 8.88178E-16-1.65784E+00 6.99779E+01
 -1       353 0.00000E+00-1.04713E+00 5.99909E+01
 -1       354 0.00000E+00-4.36310E-01 6.99962E+01
 -1       355 0.00000E+00 3.67394E-15 6.00000E+01
 -1       356 1.00000E+01-1.39619E+00 7.99878E+01
 -1       357 7.50000E+00-1.61427E+00 7.99821E+01
 -1       358 1.00000E+01 4.89859E-15 8.00000E+01
 -1       359 7.50000E+00-2.18155E-01 7.99981E+01
 -1       360 5.00000E+00-1.83236E+00 7.99764E+01
 -1       361 5.00000E+00-4.36310E-01 7.99962E+01
 -1       362 2.50000E+00-2.05045E+00 7.99707E+01
 -1       363 2.50000E+00-6.54465E-01 7.99943E+01
 -1       364 8.88178E-16-2.26854E+00 7.99650E+01
 -1       365 0.00000E+00-8.72620E-01 7.99924E+01
 -1       366 1.00000E+01-1.57071E+00 8.99863E+01
 -1       367 7.50000E+00-1.89785E+00 8.99777E+01
 -1       368 1.00000E+01 5.51091E-15 9.00000E+01
 -1       369 7.50000E+00-3.27233E-01 8.99971E+01
 -1       370 5.00000E+00-2.22498E+00 8.99692E+01
 -1       371 5.00000E+00-6.54465E-01 8.99943E+01
 -1       372 2.50000E+00-2.55211E+00 8.99606E+01
 -1       373 2.50000E+00-9.81697E-01 8.99914E+01
 -1       374 0.00000E+00-2.87925E+00 8.99520E+01
 -1       375 0.00000E+00-1.30893E+00 8.99886E+01
 -1       376 1.00000E+01-1.74524E+00 9.99848E+01
 -1       377 7.50000E+00-2.18142E+00 9.99733E+01
 -1       378 1.00000E+01 6.12323E-15 1.00000E+02
 -1       379 7.50000E+00-4.36310E-01 9.99962E+01
 -1       380 5.00000E+00-2.61760E+00 9.99619E+01
 -1       381 5.00000E+00-8.72620E-01 9.99924E+01
 -1       382 2.50000E+00-3.05377E+00 9.99505E+01
 -1       383 2.50000E+00-1.30893E+00 9.99886E+01
 -1       384 0.00000E+00-3.48995E+00 9.99391E+01
 -1       385 0.00000E+00-1.74524E+00 9.99848E+01
 -1       386-1.00000E+01-1.83003E+01 1.99161E+02
 -1       387-7.50000E+00-1.99053E+01 1.98987E+02
 -1       388-7.50000E+00-1.73006E+01 1.99249E+02
 -1       389-1.00000E+01-1.69095E+01 1.99284E+02
 -1       390-1.00000E+01-1.83918E+01 2.00157E+02
 -1       391-7.50000E+00-2.00048E+01 1.99982E+02
 -1       392-7.50000E+00-1.73871E+01 2.00245E+02
 -1       393-1.00000E+01-1.69940E+01 2.00280E+02
 -1       394-7.50000E+00-1.46908E+01 1.99455E+02
 -1       395-1.00000E+01-1.55178E+01 1.99397E+02
 -1       396-7.50000E+00-1.47642E+01 2.00452E+02
 -1       397-1.00000E+01-1.55954E+01 2.00394E+02
 -1       398-1.00000E+01-1.84833E+01 2.01153E+02
 -1       399-7.50000E+00-2.01044E+01 2.00977E+02
 -1       400-7.50000E+00-1.74736E+01 2.01242E+02
 -1       401-1.00000E+01-1.70786E+01 2.01277E+02
 -1       402-7.50000E+00-1.48377E+01 2.01449E+02
 -1       403-1.00000E+01-1.56730E+01 2.01391E+02
 -1       404-5.00000E+00-2.15103E+01 1.98814E+02
 -1       405-5.00000E+00-1.76918E+01 1.99214E+02
 -1       406-5.00000E+00-2.16179E+01 1.99808E+02
 -1       407-5.00000E+00-1.77803E+01 2.00210E+02
 -1       408-5.00000E+00-1.38638E+01 1.99512E+02
 -1       409-5.00000E+00-1.39331E+01 2.00510E+02
 -1       410-5.00000E+00-2.17254E+01 2.00802E+02
 -1       411-5.00000E+00-1.78687E+01 2.01207E+02
 -1       412-5.00000E+00-1.40024E+01 2.01507E+02
 -1       413-2.50000E+00-2.31153E+01 1.98640E+02
 -1       414-2.50000E+00-1.80830E+01 1.99180E+02
 -1       415-2.50000E+00-2.32309E+01 1.99633E+02
 -1       416-2.50000E+00-1.81734E+01 2.00176E+02
 -1       417-2.50000E+00-1.30367E+01 1.99569E+02
 -1       418-2.50000E+00-1.31019E+01 2.00567E+02
 -1       419-2.50000E+00-2.33465E+01 2.00626E+02
 -1       420-2.50000E+00-1.82638E+01 2.01171E+02
 -1       421-2.50000E+00-1.31671E+01 2.01565E+02
 -1       422-2.50000E+00-5.22936E+00 5.97717E+01
 -1       423-2.50000E+00-6.58945E+00 6.96859E+01
 -1       424-2.50000E+00-5.37225E+00 6.97903E+01
 -1       425-2.50000E+00-4.18540E+00 5.98538E+01
 -1       426-2.50000E+00-4.15342E+00 6.98734E+01
 -1       427-2.50000E+00-3.14016E+00 5.99178E+01
 -1       428-5.00000E+00-5.22936E+00 5.97717E+01
 -1       429-5.00000E+00-6.64366E+00 6.96799E+01
 -1       430-5.00000E+00-5.42657E+00 6.97853E+01
 -1       431-5.00000E+00-4.18540E+00 5.98538E+01
 -1       432-5.00000E+00-4.20782E+00 6.98694E+01
 -1       433-5.00000E+00-3.14016E+00 5.99178E+01
 -1       434-7.50000E+00-5.22936E+00 5.97717E+01
 -1       435-7.50000E+00-6.69788E+00 6.96740E+01
 -1       436-7.50000E+00-5.48088E+00 6.97803E+01
 -1       437-7.50000E+00-4.18540E+00 5.98538E+01
 -1       438-7.50000E+00-4.26221E+00 6.98653E+01
 -1       439-7.50000E+00-3.14016E+00 5.99178E+01
 -1       440-1.00000E+01-5.22936E+00 5.97717E+01
 -1       441-1.00000E+01-6.75210E+00 6.96681E+01
 -1       442-1.00000E+01-5.53519E+00 6.97753E+01
 -1       443-1.00000E+01-4.18540E+00 5.98538E+01
 -1       444-1.00000E+01-4.31660E+00 6.98613E+01
 -1       445-1.00000E+01-3.14016E+00 5.99178E+01
 -1       446-2.50000E+00-7.94953E+00 7.96001E+01
 -1       447-2.50000E+00-6.55911E+00 7.97267E+01
 -1       448-2.50000E+00-5.16669E+00 7.98290E+01
 -1       449-5.00000E+00-8.05797E+00 7.95882E+01
 -1       450-5.00000E+00-6.66774E+00 7.97167E+01
 -1       451-5.00000E+00-5.27547E+00 7.98209E+01
 -1       452-7.50000E+00-8.16640E+00 7.95763E+01
 -1       453-7.50000E+00-6.77636E+00 7.97067E+01
 -1       454-7.50000E+00-5.38425E+00 7.98128E+01
 -1       455-1.00000E+01-8.27484E+00 7.95644E+01
 -1       456-1.00000E+01-6.88499E+00 7.96967E+01
 -1       457-1.00000E+01-5.49303E+00 7.98048E+01
 -1       458-2.50000E+00-9.30962E+00 8.95143E+01
 -1       459-2.50000E+00-7.74597E+00 8.96631E+01
 -1       460-2.50000E+00-6.17995E+00 8.97846E+01
 -1       461-5.00000E+00-9.47227E+00 8.94964E+01
 -1       462-5.00000E+00-7.90890E+00 8.96481E+01
 -1       463-5.00000E+00-6.34312E+00 8.97725E+01
 -1       464-7.50000E+00-9.63493E+00 8.94786E+01
 -1       465-7.50000E+00-8.07184E+00 8.96331E+01
 -1       466-7.50000E+00-6.50630E+00 8.97604E+01
 -1       467-1.00000E+01-9.79758E+00 8.94608E+01
 -1       468-1.00000E+01-8.23478E+00 8.96182E+01
 -1       469-1.00000E+01-6.66947E+00 8.97482E+01
 -1       470-2.50000E+00-1.06697E+01 9.94284E+01
 -1       471-2.50000E+00-8.93282E+00 9.95995E+01
 -1       472-2.50000E+00-7.19321E+00 9.97402E+01
 -1       473-5.00000E+00-1.08866E+01 9.94047E+01
 -1       474-5.00000E+00-9.15007E+00 9.95795E+01
 -1       475-5.00000E+00-7.41078E+00 9.97241E+01
 -1       476-7.50000E+00-1.11034E+01 9.93809E+01
 -1       477-7.50000E+00-9.36732E+00 9.95596E+01
 -1       478-7.50000E+00-7.62835E+00 9.97079E+01
 -1       479-1.00000E+01-1.13203E+01 9.93572E+01
 -1       480-1.00000E+01-9.58457E+00 9.95396E+01
 -1       481-1.00000E+01-7.84591E+00 9.96917E+01
 -1       482-7.50000E+00-1.39945E+01 1.99505E+02
 -1       483-1.00000E+01-1.48217E+01 1.99450E+02
 -1       484-7.50000E+00-1.40644E+01 2.00502E+02
 -1       485-1.00000E+01-1.48958E+01 2.00447E+02
 -1       486-7.50000E+00-1.32980E+01 1.99552E+02
 -1       487-1.00000E+01-1.41254E+01 1.99501E+02
 -1       488-7.50000E+00-1.33645E+01 2.00550E+02
 -1       489-1.00000E+01-1.41960E+01 2.00498E+02
 -1       490-7.50000E+00-1.41344E+01 2.01500E+02
 -1       491-1.00000E+01-1.49699E+01 2.01445E+02
 -1       492-7.50000E+00-1.34310E+01 2.01548E+02
 -1       493-1.00000E+01-1.42667E+01 2.01496E+02
 -1       494-5.00000E+00-1.31673E+01 1.99559E+02
 -1       495-5.00000E+00-1.32331E+01 2.00557E+02
 -1       496-5.00000E+00-1.24706E+01 1.99604E+02
 -1       497-5.00000E+00-1.25329E+01 2.00602E+02
 -1       498-5.00000E+00-1.32989E+01 2.01555E+02
 -1       499-5.00000E+00-1.25953E+01 2.01600E+02
 -1       500-2.50000E+00-1.23400E+01 1.99614E+02
 -1       501-2.50000E+00-1.24017E+01 2.00612E+02
 -1       502-2.50000E+00-1.16432E+01 1.99656E+02
 -1       503-2.50000E+00-1.17014E+01 2.00654E+02
 -1       504-2.50000E+00-1.24634E+01 2.01610E+02
 -1       505-2.50000E+00-1.17596E+01 2.01652E+02
 -1       506-2.50000E+00-7.92366E+00 1.12219E+02
 -1       507-2.50000E+00-7.07474E+00 1.12276E+02
 -1       508-2.50000E+00-6.32255E+00 9.97992E+01
 -1       509-2.50000E+00-6.22538E+00 1.12326E+02
 -1       510-2.50000E+00-5.45141E+00 9.98506E+01
 -1       511-5.00000E+00-8.21740E+00 1.12198E+02
 -1       512-5.00000E+00-7.36863E+00 1.12257E+02
 -1       513-5.00000E+00-6.54025E+00 9.97849E+01
 -1       514-5.00000E+00-6.51939E+00 1.12309E+02
 -1       515-5.00000E+00-5.66923E+00 9.98382E+01
 -1       516-7.50000E+00-8.51115E+00 1.12176E+02
 -1       517-7.50000E+00-7.66251E+00 1.12237E+02
 -1       518-7.50000E+00-6.75795E+00 9.97707E+01
 -1       519-7.50000E+00-6.81341E+00 1.12292E+02
 -1       520-7.50000E+00-5.88704E+00 9.98258E+01
 -1       521-1.00000E+01-8.80490E+00 1.12155E+02
 -1       522-1.00000E+01-7.95640E+00 1.12218E+02
 -1       523-1.00000E+01-6.97565E+00 9.97564E+01
 -1       524-1.00000E+01-7.10742E+00 1.12274E+02
 -1       525-1.00000E+01-6.10485E+00 9.98135E+01
 -1       526-2.50000E+00-8.65410E+00 1.24698E+02
 -1       527-2.50000E+00-7.82692E+00 1.24753E+02
 -1       528-2.50000E+00-6.99935E+00 1.24802E+02
 -1       529-5.00000E+00-9.02403E+00 1.24671E+02
 -1       530-5.00000E+00-8.19700E+00 1.24729E+02
 -1       531-5.00000E+00-7.36956E+00 1.24780E+02
 -1       532-7.50000E+00-9.39396E+00 1.24645E+02
 -1       533-7.50000E+00-8.56708E+00 1.24704E+02
 -1       534-7.50000E+00-7.73978E+00 1.24757E+02
 -1       535-1.00000E+01-9.76389E+00 1.24618E+02
 -1       536-1.00000E+01-8.93716E+00 1.24680E+02
 -1       537-1.00000E+01-8.10999E+00 1.24735E+02
 -1       538-2.50000E+00-9.38454E+00 1.37176E+02
 -1       539-2.50000E+00-8.57911E+00 1.37230E+02
 -1       540-2.50000E+00-7.77332E+00 1.37277E+02
 -1       541-5.00000E+00-9.83065E+00 1.37145E+02
 -1       542-5.00000E+00-9.02538E+00 1.37200E+02
 -1       543-5.00000E+00-8.21973E+00 1.37250E+02
 -1       544-7.50000E+00-1.02768E+01 1.37113E+02
 -1       545-7.50000E+00-9.47165E+00 1.37171E+02
 -1       546-7.50000E+00-8.66614E+00 1.37223E+02
 -1       547-1.00000E+01-1.07229E+01 1.37081E+02
 -1       548-1.00000E+01-9.91792E+00 1.37142E+02
 -1       549-1.00000E+01-9.11256E+00 1.37196E+02
 -1       550-2.50000E+00-1.01150E+01 1.49655E+02
 -1       551-2.50000E+00-9.33129E+00 1.49706E+02
 -1       552-2.50000E+00-8.54729E+00 1.49753E+02
 -1       553-5.00000E+00-1.06373E+01 1.49618E+02
 -1       554-5.00000E+00-9.85375E+00 1.49672E+02
 -1       555-5.00000E+00-9.06990E+00 1.49721E+02
 -1       556-7.50000E+00-1.11596E+01 1.49581E+02
 -1       557-7.50000E+00-1.03762E+01 1.49638E+02
 -1       558-7.50000E+00-9.59251E+00 1.49689E+02
 -1       559-1.00000E+01-1.16819E+01 1.49544E+02
 -1       560-1.00000E+01-1.08987E+01 1.49603E+02
 -1       561-1.00000E+01-1.01151E+01 1.49657E+02
 -1       562-2.50000E+00-1.08454E+01 1.62134E+02
 -1       563-2.50000E+00-1.00835E+01 1.62183E+02
 -1       564-2.50000E+00-9.32126E+00 1.62229E+02
 -1       565-5.00000E+00-1.14439E+01 1.62092E+02
 -1       566-5.00000E+00-1.06821E+01 1.62144E+02
 -1       567-5.00000E+00-9.92007E+00 1.62192E+02
 -1       568-7.50000E+00-1.20424E+01 1.62050E+02
 -1       569-7.50000E+00-1.12808E+01 1.62104E+02
 -1       570-7.50000E+00-1.05189E+01 1.62155E+02
 -1       571-1.00000E+01-1.26409E+01 1.62008E+02
 -1       572-1.00000E+01-1.18794E+01 1.62065E+02
 -1       573-1.00000E+01-1.11177E+01 1.62118E+02
 -1       574-2.50000E+00-1.15759E+01 1.74612E+02
 -1       575-2.50000E+00-1.08357E+01 1.74660E+02
 -1       576-2.50000E+00-1.00952E+01 1.74704E+02
 -1       577-5.00000E+00-1.22505E+01 1.74565E+02
 -1       578-5.00000E+00-1.15105E+01 1.74616E+02
 -1       579-5.00000E+00-1.07702E+01 1.74663E+02
 -1       580-7.50000E+00-1.29252E+01 1.74518E+02
 -1       581-7.50000E+00-1.21853E+01 1.74571E+02
 -1       582-7.50000E+00-1.14453E+01 1.74621E+02
 -1       583-1.00000E+01-1.35998E+01 1.74471E+02