    1C
    1UUSER                                                              
    1UDATE              18.september.2024                               
    1UTIME              22:05:16                                        
    1UHOST                                                              
    1UPGM               CalculiX                                        
    1UVERSION           Version DEVELOPMENT                             
    1UCOMPILETIME       Tue Sep 17 18:13:23 CEST 2024                    
    1UDIR                                                               
    1UDBN                                                               
    1UMAT    1EL                                                        
    2C                            51                                     1
 -1        22-7.45058E-09-7.45058E-09-5.00000E-03
 -1        23-7.45058E-09-7.45058E-09 0.00000E+00
 -1        24-7.45058E-09-7.45058E-09 5.00000E-03
 -1        25 5.00000E-01-7.45058E-09-1.50000E-02
 -1        26 5.00000E-01-7.45058E-09 0.00000E+00
 -1        27 5.00000E-01-7.45058E-09 1.50000E-02
 -1        28 5.00000E-01 5.00000E-01-1.50000E-02
 -1        29 5.00000E-01 5.00000E-01 0.00000E+00
 -1        30 5.00000E-01 5.00000E-01 1.50000E-02
 -1        31-7.45058E-09 5.00000E-01-5.00000E-03
 -1        32-7.45058E-09 5.00000E-01 0.00000E+00
 -1        33-7.45058E-09 5.00000E-01 5.00000E-03
 -1        34 2.50000E-01-7.45058E-09-1.00000E-02
 -1        36 2.50000E-01-7.45058E-09 1.00000E-02
 -1        37 5.00000E-01 2.50000E-01-1.50000E-02
 -1        39 5.00000E-01 2.50000E-01 1.50000E-02
 -1        40 2.50000E-01 5.00000E-01-1.00000E-02
 -1        42 2.50000E-01 5.00000E-01 1.00000E-02
 -1        43-7.45058E-09 2.50000E-01-5.00000E-03
 -1        45-7.45058E-09 2.50000E-01 5.00000E-03
 -1        46 5.00000E-01 1.00000E+00-1.50000E-02
 -1        47 5.00000E-01 1.00000E+00 0.00000E+00
 -1        48 5.00000E-01 1.00000E+00 1.50000E-02
 -1        49-7.45058E-09 1.00000E+00-5.00000E-03
 -1        50-7.45058E-09 1.00000E+00 0.00000E+00
 -1        51-7.45058E-09 1.00000E+00 5.00000E-03
 -1        52 5.00000E-01 7.50000E-01-1.50000E-02
 -1        54 5.00000E-01 7.50000E-01 1.50000E-02
 -1        55 2.50000E-01 1.00000E+00-1.00000E-02
 -1        57 2.50000E-01 1.00000E+00 1.00000E-02
 -1        58-7.45058E-09 7.50000E-01-5.00000E-03
 -1        60-7.45058E-09 7.50000E-01 5.00000E-03
 -1        61 1.00000E+00-7.45058E-09-1.00000E-02
 -1        62 1.00000E+00-7.45058E-09 0.00000E+00
 -1        63 1.00000E+00-7.45058E-09 1.00000E-02
 -1        64 1.00000E+00 5.00000E-01-1.00000E-02
 -1        65 1.00000E+00 5.00000E-01 0.00000E+00
 -1        66 1.00000E+00 5.00000E-01 1.00000E-02
 -1        67 7.50000E-01-7.45058E-09-1.25000E-02
 -1        69 7.50000E-01-7.45058E-09 1.25000E-02
 -1        70 1.00000E+00 2.50000E-01-1.00000E-02
 -1        72 1.00000E+00 2.50000E-01 1.00000E-02
 -1        73 7.50000E-01 5.00000E-01-1.25000E-02
 -1        75 7.50000E-01 5.00000E-01 1.25000E-02
 -1        76 1.00000E+00 1.00000E+00-1.00000E-02
 -1        77 1.00000E+00 1.00000E+00 0.00000E+00
 -1        78 1.00000E+00 1.00000E+00 1.00000E-02
 -1        79 1.00000E+00 7.50000E-01-1.00000E-02
 -1        81 1.00000E+00 7.50000E-01 1.00000E-02
 -1        82 7.50000E-01 1.00000E+00-1.25000E-02
 -1        84 7.50000E-01 1.00000E+00 1.25000E-02
 -3
    3C                             4                                     1
 -1         1    4    0    1
 -2        22        25        28        31        24        27        30        33        34        37
 -2        40        43        23        26        29        32        36        39        42        45
 -1         2    4    0    1
 -2        31        28        46        49        33        30        48        51        40        52
 -2        55        58        32        29        47        50        42        54        57        60
 -1         3    4    0    1
 -2        25        61        64        28        27        63        66        30        67        70
 -2        73        37        26        62        65        29        69        72        75        39
 -1         4    4    0    1
 -2        28        64        76        46        30        66        78        48        73        79
 -2        82        52        29        65        77        47        75        81        84        54
 -3
    1PSTEP                         1           5           1          
  100CL  101 5.00000E-06          51                     1    1           1
 -4  DISP        4    1
 -5  D1          1    2    1    0
 -5  D2          1    2    2    0
 -5  D3          1    2    3    0
 -5  ALL         1    2    0    0    1ALL
 -1        22 0.00000E+00 0.00000E+00-2.23480E-09
 -1        23 0.00000E+00 0.00000E+00 0.00000E+00
 -1        24 0.00000E+00 0.00000E+00 2.23480E-09
 -1        25-4.11717E-06-4.36963E-06 9.70737E-05
 -1        26-5.20863E-09 6.27955E-09 9.71072E-05
 -1        27 4.10675E-06 4.38203E-06 9.70705E-05
 -1        28-6.31235E-06-4.30327E-06-9.24406E-06
 -1        29-3.91326E-09-5.10486E-09-9.24973E-06
 -1        30 6.30452E-06 4.29306E-06-9.25539E-06
 -1        31 0.00000E+00 0.00000E+00 1.31324E-09
 -1        32 0.00000E+00 0.00000E+00 0.00000E+00
 -1        33 0.00000E+00 0.00000E+00-1.31324E-09
 -1        34 1.22568E-06-1.65226E-06 6.73567E-05
 -1        36-1.23689E-06 1.65781E-06 6.73541E-05
 -1        37-5.72707E-07-2.65410E-06 4.27712E-05
 -1        39 5.63503E-07 2.65435E-06 4.27715E-05
 -1        40-1.47335E-06-1.63014E-06 1.39685E-05
 -1        42 1.46946E-06 1.62965E-06 1.39702E-05
 -1        43 0.00000E+00 0.00000E+00 1.71985E-09
 -1        45 0.00000E+00 0.00000E+00-1.71985E-09
 -1        46-4.63926E-06-1.24992E-06-6.68892E-05
 -1        47 4.24964E-10-9.58472E-09-6.68994E-05
 -1        48 4.64012E-06 1.23087E-06-6.68912E-05
 -1        49 0.00000E+00 0.00000E+00-2.95426E-09
 -1        50 0.00000E+00 0.00000E+00 0.00000E+00
 -1        51 0.00000E+00 0.00000E+00 2.95426E-09
 -1        52-1.10639E-06-1.61976E-06-4.98927E-05
 -1        54 1.09916E-06 1.60252E-06-4.98922E-05
 -1        55-3.31121E-06-8.17697E-07-3.16221E-05
 -1        57 3.31453E-06 8.11873E-07-3.16249E-05
 -1        58 0.00000E+00 0.00000E+00 1.30658E-09
 -1        60 0.00000E+00 0.00000E+00-1.30658E-09
 -1        61 8.27874E-07-1.44507E-06 1.54580E-05
 -1        62-1.10794E-08-1.07904E-08 1.54427E-05
 -1        63-8.50115E-07 1.42357E-06 1.54632E-05
 -1        64-1.08365E-06-1.40076E-06-9.74780E-05
 -1        65-1.27484E-08-2.27516E-08-9.74846E-05
 -1        66 1.05833E-06 1.35526E-06-9.74811E-05
 -1        67-3.34919E-06-3.17258E-06 5.94120E-05
 -1        69 3.33445E-06 3.16934E-06 5.94086E-05
 -1        70-2.60048E-06-2.76173E-06-4.38294E-05
 -1        72 2.57595E-06 2.72677E-06-4.38332E-05
 -1        73-2.56550E-06-2.57809E-06-5.16448E-05
 -1        75 2.54904E-06 2.55055E-06-5.16439E-05
 -1        76 1.73266E-06 1.28647E-06-1.02026E-04
 -1        77-2.32956E-10-2.30025E-08-1.02051E-04
 -1        78-1.73322E-06-1.33256E-06-1.02020E-04
 -1        79-2.12541E-06-4.22138E-07-1.16230E-04
 -1        81 2.10931E-06 3.75549E-07-1.16233E-04
 -1        82-1.73439E-06 2.11438E-07-9.20001E-05
 -1        84 1.73348E-06-2.44072E-07-9.20026E-05
 -3
 9999
