    1C
    1UUSER                                                              
    1UDATE              17.september.2024                               
    1UTIME              18:12:13                                        
    1UHOST                                                              
    1UPGM               CalculiX                                        
    1UVERSION           Version DEVELOPMENT                             
    1UCOMPILETIME       Thu Sep  5 09:47:09 CEST 2024                    
    1UDIR                                                               
    1UDBN                                                               
    1UMAT    1EL                                                        
    2C                            51                                     1
 -1        22-7.45058E-09-7.45058E-09-5.00000E-03
 -1        23-7.45058E-09-7.45058E-09 0.00000E+00
 -1        24-7.45058E-09-7.45058E-09 5.00000E-03
 -1        25 5.00000E-01-7.45058E-09-1.50000E-02
 -1        26 5.00000E-01-7.45058E-09 0.00000E+00
 -1        27 5.00000E-01-7.45058E-09 1.50000E-02
 -1        28 5.00000E-01 5.00000E-01-1.50000E-02
 -1        29 5.00000E-01 5.00000E-01 0.00000E+00
 -1        30 5.00000E-01 5.00000E-01 1.50000E-02
 -1        31-7.45058E-09 5.00000E-01-5.00000E-03
 -1        32-7.45058E-09 5.00000E-01 0.00000E+00
 -1        33-7.45058E-09 5.00000E-01 5.00000E-03
 -1        34 2.50000E-01-7.45058E-09-1.00000E-02
 -1        36 2.50000E-01-7.45058E-09 1.00000E-02
 -1        37 5.00000E-01 2.50000E-01-1.50000E-02
 -1        39 5.00000E-01 2.50000E-01 1.50000E-02
 -1        40 2.50000E-01 5.00000E-01-1.00000E-02
 -1        42 2.50000E-01 5.00000E-01 1.00000E-02
 -1        43-7.45058E-09 2.50000E-01-5.00000E-03
 -1        45-7.45058E-09 2.50000E-01 5.00000E-03
 -1        46 5.00000E-01 1.00000E+00-1.50000E-02
 -1        47 5.00000E-01 1.00000E+00 0.00000E+00
 -1        48 5.00000E-01 1.00000E+00 1.50000E-02
 -1        49-7.45058E-09 1.00000E+00-5.00000E-03
 -1        50-7.45058E-09 1.00000E+00 0.00000E+00
 -1        51-7.45058E-09 1.00000E+00 5.00000E-03
 -1        52 5.00000E-01 7.50000E-01-1.50000E-02
 -1        54 5.00000E-01 7.50000E-01 1.50000E-02
 -1        55 2.50000E-01 1.00000E+00-1.00000E-02
 -1        57 2.50000E-01 1.00000E+00 1.00000E-02
 -1        58-7.45058E-09 7.50000E-01-5.00000E-03
 -1        60-7.45058E-09 7.50000E-01 5.00000E-03
 -1        61 1.00000E+00-7.45058E-09-1.00000E-02
 -1        62 1.00000E+00-7.45058E-09 0.00000E+00
 -1        63 1.00000E+00-7.45058E-09 1.00000E-02
 -1        64 1.00000E+00 5.00000E-01-1.00000E-02
 -1        65 1.00000E+00 5.00000E-01 0.00000E+00
 -1        66 1.00000E+00 5.00000E-01 1.00000E-02
 -1        67 7.50000E-01-7.45058E-09-1.25000E-02
 -1        69 7.50000E-01-7.45058E-09 1.25000E-02
 -1        70 1.00000E+00 2.50000E-01-1.00000E-02
 -1        72 1.00000E+00 2.50000E-01 1.00000E-02
 -1        73 7.50000E-01 5.00000E-01-1.25000E-02
 -1        75 7.50000E-01 5.00000E-01 1.25000E-02
 -1        76 1.00000E+00 1.00000E+00-1.00000E-02
 -1        77 1.00000E+00 1.00000E+00 0.00000E+00
 -1        78 1.00000E+00 1.00000E+00 1.00000E-02
 -1        79 1.00000E+00 7.50000E-01-1.00000E-02
 -1        81 1.00000E+00 7.50000E-01 1.00000E-02
 -1        82 7.50000E-01 1.00000E+00-1.25000E-02
 -1        84 7.50000E-01 1.00000E+00 1.25000E-02
 -3
    3C                             4                                     1
 -1         1    4    0    1
 -2        22        25        28        31        24        27        30        33        34        37
 -2        40        43        23        26        29        32        36        39        42        45
 -1         2    4    0    1
 -2        31        28        46        49        33        30        48        51        40        52
 -2        55        58        32        29        47        50        42        54        57        60
 -1         3    4    0    1
 -2        25        61        64        28        27        63        66        30        67        70
 -2        73        37        26        62        65        29        69        72        75        39
 -1         4    4    0    1
 -2        28        64        76        46        30        66        78        48        73        79
 -2        82        52        29        65        77        47        75        81        84        54
 -3
    1PSTEP                         1           5           1          
  100CL  101 5.00000E-06          51                     1    1           1
 -4  DISP        4    1
 -5  D1          1    2    1    0
 -5  D2          1    2    2    0
 -5  D3          1    2    3    0
 -5  ALL         1    2    0    0    1ALL
 -1        22 0.00000E+00 0.00000E+00-1.21560E-06
 -1        23 0.00000E+00 0.00000E+00 0.00000E+00
 -1        24 0.00000E+00 0.00000E+00 1.21560E-06
 -1        25-1.40719E-04-3.84442E-05-1.51272E-06
 -1        26 1.34867E-07 8.29024E-07-1.56199E-06
 -1        27 1.40996E-04 4.00450E-05-2.80734E-06
 -1        28-1.91011E-04-2.39998E-13-6.17927E-04
 -1        29-2.86364E-06-1.65252E-14-6.20363E-04
 -1        30 1.85284E-04 2.06947E-13-6.22799E-04
 -1        31 0.00000E+00 0.00000E+00 4.35158E-07
 -1        32 0.00000E+00 0.00000E+00 0.00000E+00
 -1        33 0.00000E+00 0.00000E+00-4.35158E-07
 -1        34-3.00021E-05-1.06662E-05 4.32381E-04
 -1        36 3.02668E-05 1.05727E-05 4.31172E-04
 -1        37-5.97085E-05-1.31136E-05-4.69774E-04
 -1        39 5.53790E-05 1.36437E-05-4.69295E-04
 -1        40-4.19340E-05-7.32250E-14 3.22248E-04
 -1        42 4.06774E-05 8.03368E-14 3.22674E-04
 -1        43 0.00000E+00 0.00000E+00 5.50491E-07
 -1        45 0.00000E+00 0.00000E+00-5.50491E-07
 -1        46-1.40719E-04 3.84442E-05-1.51275E-06
 -1        47 1.34867E-07-8.29024E-07-1.56202E-06
 -1        48 1.40996E-04-4.00450E-05-2.80737E-06
 -1        49 0.00000E+00 0.00000E+00-1.21560E-06
 -1        50 0.00000E+00 0.00000E+00 0.00000E+00
 -1        51 0.00000E+00 0.00000E+00 1.21560E-06
 -1        52-5.97085E-05 1.31136E-05-4.69774E-04
 -1        54 5.53790E-05-1.36437E-05-4.69295E-04
 -1        55-3.00021E-05 1.06662E-05 4.32381E-04
 -1        57 3.02668E-05-1.05727E-05 4.31172E-04
 -1        58 0.00000E+00 0.00000E+00 5.50491E-07
 -1        60 0.00000E+00 0.00000E+00-5.50491E-07
 -1        61 1.45488E-05-3.70843E-05-2.36782E-03
 -1        62-4.92830E-06 2.60820E-06-2.36723E-03
 -1        63-2.44537E-05 4.23354E-05-2.36513E-03
 -1        64-6.73565E-05-1.95992E-13-4.03221E-03
 -1        65-1.47399E-05-8.43518E-14-4.03298E-03
 -1        66 3.79369E-05 2.73105E-14-4.03320E-03
 -1        67-9.04793E-05-4.12702E-05-1.32271E-03
 -1        69 8.43010E-05 4.35500E-05-1.32449E-03
 -1        70-8.43523E-05-3.70499E-05-3.45696E-03
 -1        72 6.18436E-05 3.80352E-05-3.45818E-03
 -1        73-1.03751E-04-2.23682E-13-2.28159E-03
 -1        75 8.65963E-05 1.29855E-13-2.28172E-03
 -1        76 1.45488E-05 3.70843E-05-2.36782E-03
 -1        77-4.92830E-06-2.60820E-06-2.36723E-03
 -1        78-2.44537E-05-4.23354E-05-2.36513E-03
 -1        79-8.43523E-05 3.70499E-05-3.45696E-03
 -1        81 6.18436E-05-3.80352E-05-3.45818E-03
 -1        82-9.04793E-05 4.12702E-05-1.32271E-03
 -1        84 8.43010E-05-4.35500E-05-1.32449E-03
 -3
 9999
