    1C
    1UUSER                                                              
    1UDATE              17.september.2024                               
    1UTIME              18:13:30                                        
    1UHOST                                                              
    1UPGM               CalculiX                                        
    1UVERSION           Version DEVELOPMENT                             
    1UCOMPILETIME       Tue Sep 17 17:48:11 CEST 2024                    
    1UDIR                                                               
    1UDBN                                                               
    1UMAT    1EL                                                        
    2C                            51                                     1
 -1        22-7.45058E-09-7.45058E-09-5.00000E-03
 -1        23-7.45058E-09-7.45058E-09 0.00000E+00
 -1        24-7.45058E-09-7.45058E-09 5.00000E-03
 -1        25 5.00000E-01-7.45058E-09-1.50000E-02
 -1        26 5.00000E-01-7.45058E-09 0.00000E+00
 -1        27 5.00000E-01-7.45058E-09 1.50000E-02
 -1        28 5.00000E-01 5.00000E-01-1.50000E-02
 -1        29 5.00000E-01 5.00000E-01 0.00000E+00
 -1        30 5.00000E-01 5.00000E-01 1.50000E-02
 -1        31-7.45058E-09 5.00000E-01-5.00000E-03
 -1        32-7.45058E-09 5.00000E-01 0.00000E+00
 -1        33-7.45058E-09 5.00000E-01 5.00000E-03
 -1        34 2.50000E-01-7.45058E-09-1.00000E-02
 -1        36 2.50000E-01-7.45058E-09 1.00000E-02
 -1        37 5.00000E-01 2.50000E-01-1.50000E-02
 -1        39 5.00000E-01 2.50000E-01 1.50000E-02
 -1        40 2.50000E-01 5.00000E-01-1.00000E-02
 -1        42 2.50000E-01 5.00000E-01 1.00000E-02
 -1        43-7.45058E-09 2.50000E-01-5.00000E-03
 -1        45-7.45058E-09 2.50000E-01 5.00000E-03
 -1        46 5.00000E-01 1.00000E+00-1.50000E-02
 -1        47 5.00000E-01 1.00000E+00 0.00000E+00
 -1        48 5.00000E-01 1.00000E+00 1.50000E-02
 -1        49-7.45058E-09 1.00000E+00-5.00000E-03
 -1        50-7.45058E-09 1.00000E+00 0.00000E+00
 -1        51-7.45058E-09 1.00000E+00 5.00000E-03
 -1        52 5.00000E-01 7.50000E-01-1.50000E-02
 -1        54 5.00000E-01 7.50000E-01 1.50000E-02
 -1        55 2.50000E-01 1.00000E+00-1.00000E-02
 -1        57 2.50000E-01 1.00000E+00 1.00000E-02
 -1        58-7.45058E-09 7.50000E-01-5.00000E-03
 -1        60-7.45058E-09 7.50000E-01 5.00000E-03
 -1        61 1.00000E+00-7.45058E-09-1.00000E-02
 -1        62 1.00000E+00-7.45058E-09 0.00000E+00
 -1        63 1.00000E+00-7.45058E-09 1.00000E-02
 -1        64 1.00000E+00 5.00000E-01-1.00000E-02
 -1        65 1.00000E+00 5.00000E-01 0.00000E+00
 -1        66 1.00000E+00 5.00000E-01 1.00000E-02
 -1        67 7.50000E-01-7.45058E-09-1.25000E-02
 -1        69 7.50000E-01-7.45058E-09 1.25000E-02
 -1        70 1.00000E+00 2.50000E-01-1.00000E-02
 -1        72 1.00000E+00 2.50000E-01 1.00000E-02
 -1        73 7.50000E-01 5.00000E-01-1.25000E-02
 -1        75 7.50000E-01 5.00000E-01 1.25000E-02
 -1        76 1.00000E+00 1.00000E+00-1.00000E-02
 -1        77 1.00000E+00 1.00000E+00 0.00000E+00
 -1        78 1.00000E+00 1.00000E+00 1.00000E-02
 -1        79 1.00000E+00 7.50000E-01-1.00000E-02
 -1        81 1.00000E+00 7.50000E-01 1.00000E-02
 -1        82 7.50000E-01 1.00000E+00-1.25000E-02
 -1        84 7.50000E-01 1.00000E+00 1.25000E-02
 -3
    3C                             4                                     1
 -1         1    4    0    1
 -2        22        25        28        31        24        27        30        33        34        37
 -2        40        43        23        26        29        32        36        39        42        45
 -1         2    4    0    1
 -2        31        28        46        49        33        30        48        51        40        52
 -2        55        58        32        29        47        50        42        54        57        60
 -1         3    4    0    1
 -2        25        61        64        28        27        63        66        30        67        70
 -2        73        37        26        62        65        29        69        72        75        39
 -1         4    4    0    1
 -2        28        64        76        46        30        66        78        48        73        79
 -2        82        52        29        65        77        47        75        81        84        54
 -3
    1PSTEP                         1           5           1          
  100CL  101 5.00000E-06          51                     1    1           1
 -4  DISP        4    1
 -5  D1          1    2    1    0
 -5  D2          1    2    2    0
 -5  D3          1    2    3    0
 -5  ALL         1    2    0    0    1ALL
 -1        22 0.00000E+00 0.00000E+00-7.74291E-07
 -1        23 0.00000E+00 0.00000E+00 0.00000E+00
 -1        24 0.00000E+00 0.00000E+00 7.74291E-07
 -1        25-6.70905E-05-9.78977E-05 2.36311E-03
 -1        26-2.39183E-06 4.40899E-06 2.36327E-03
 -1        27 6.23096E-05 1.06658E-04 2.36183E-03
 -1        28-1.35888E-04-1.05604E-04-4.36486E-04
 -1        29-2.85863E-06-3.56270E-06-4.38586E-04
 -1        30 1.30171E-04 9.84782E-05-4.40686E-04
 -1        31 0.00000E+00 0.00000E+00 4.23816E-07
 -1        32 0.00000E+00 0.00000E+00 0.00000E+00
 -1        33 0.00000E+00 0.00000E+00-4.23816E-07
 -1        34 3.70444E-05-3.50943E-05 1.55894E-03
 -1        36-4.25484E-05 3.79441E-05 1.55792E-03
 -1        37-2.25821E-05-7.36580E-05 9.50538E-04
 -1        39 1.73307E-05 7.41229E-05 9.50405E-04
 -1        40-3.05649E-05-3.69287E-05 2.27710E-04
 -1        42 2.78392E-05 3.61084E-05 2.28343E-04
 -1        43 0.00000E+00 0.00000E+00 6.40154E-07
 -1        45 0.00000E+00 0.00000E+00-6.40154E-07
 -1        46-1.36611E-04-5.47133E-05-2.36573E-03
 -1        47-2.12867E-06-7.90601E-06-2.36626E-03
 -1        48 1.32358E-04 3.89303E-05-2.36688E-03
 -1        49 0.00000E+00 0.00000E+00-1.07757E-06
 -1        50 0.00000E+00 0.00000E+00 0.00000E+00
 -1        51 0.00000E+00 0.00000E+00 1.07757E-06
 -1        52-6.50113E-05-6.13973E-05-1.61448E-03
 -1        54 5.78242E-05 4.86052E-05-1.61476E-03
 -1        55-8.16275E-05-2.36383E-05-9.47744E-04
 -1        57 8.32257E-05 1.93937E-05-9.48919E-04
 -1        58 0.00000E+00 0.00000E+00 4.51365E-07
 -1        60 0.00000E+00 0.00000E+00-4.51365E-07
 -1        61 3.18972E-05-6.35880E-05 1.47661E-03
 -1        62-2.24642E-06 2.29169E-06 1.47689E-03
 -1        63-3.64226E-05 6.82025E-05 1.47803E-03
 -1        64-4.66247E-05-8.55876E-05-2.85049E-03
 -1        65-9.42591E-06-1.53796E-05-2.85150E-03
 -1        66 2.78317E-05 5.48307E-05-2.85213E-03
 -1        67-4.84342E-05-8.64803E-05 1.86091E-03
 -1        69 4.38470E-05 9.17869E-05 1.85943E-03
 -1        70-4.57148E-05-1.02456E-04-6.88521E-04
 -1        72 3.47138E-05 8.90778E-05-6.90323E-04
 -1        73-7.34351E-05-9.44124E-05-1.61306E-03
 -1        75 6.11545E-05 7.57878E-05-1.61334E-03
 -1        76-1.42393E-05-2.92922E-05-4.82526E-03
 -1        77-7.63738E-06-1.95284E-05-4.82501E-03
 -1        78-1.06559E-06-9.77856E-06-4.82346E-03
 -1        79-7.34588E-05-6.16039E-05-4.19953E-03
 -1        81 5.28496E-05 2.37858E-05-4.20074E-03
 -1        82-8.27944E-05-4.32022E-05-3.73196E-03
 -1        84 7.20778E-05 1.51730E-05-3.73319E-03
 -3
 9999
