    1C
    1UUSER                                                              
    1UDATE              18.september.2024                               
    1UTIME              22:05:14                                        
    1UHOST                                                              
    1UPGM               CalculiX                                        
    1UVERSION           Version DEVELOPMENT                             
    1UCOMPILETIME       Tue Sep 17 18:13:23 CEST 2024                    
    1UDIR                                                               
    1UDBN                                                               
    1UMAT    1EL                                                        
    2C                            51                                     1
 -1        22-7.45058E-09-7.45058E-09-5.00000E-03
 -1        23-7.45058E-09-7.45058E-09 0.00000E+00
 -1        24-7.45058E-09-7.45058E-09 5.00000E-03
 -1        25 5.00000E-01-7.45058E-09-1.50000E-02
 -1        26 5.00000E-01-7.45058E-09 0.00000E+00
 -1        27 5.00000E-01-7.45058E-09 1.50000E-02
 -1        28 5.00000E-01 5.00000E-01-1.50000E-02
 -1        29 5.00000E-01 5.00000E-01 0.00000E+00
 -1        30 5.00000E-01 5.00000E-01 1.50000E-02
 -1        31-7.45058E-09 5.00000E-01-5.00000E-03
 -1        32-7.45058E-09 5.00000E-01 0.00000E+00
 -1        33-7.45058E-09 5.00000E-01 5.00000E-03
 -1        34 2.50000E-01-7.45058E-09-1.00000E-02
 -1        36 2.50000E-01-7.45058E-09 1.00000E-02
 -1        37 5.00000E-01 2.50000E-01-1.50000E-02
 -1        39 5.00000E-01 2.50000E-01 1.50000E-02
 -1        40 2.50000E-01 5.00000E-01-1.00000E-02
 -1        42 2.50000E-01 5.00000E-01 1.00000E-02
 -1        43-7.45058E-09 2.50000E-01-5.00000E-03
 -1        45-7.45058E-09 2.50000E-01 5.00000E-03
 -1        46 5.00000E-01 1.00000E+00-1.50000E-02
 -1        47 5.00000E-01 1.00000E+00 0.00000E+00
 -1        48 5.00000E-01 1.00000E+00 1.50000E-02
 -1        49-7.45058E-09 1.00000E+00-5.00000E-03
 -1        50-7.45058E-09 1.00000E+00 0.00000E+00
 -1        51-7.45058E-09 1.00000E+00 5.00000E-03
 -1        52 5.00000E-01 7.50000E-01-1.50000E-02
 -1        54 5.00000E-01 7.50000E-01 1.50000E-02
 -1        55 2.50000E-01 1.00000E+00-1.00000E-02
 -1        57 2.50000E-01 1.00000E+00 1.00000E-02
 -1        58-7.45058E-09 7.50000E-01-5.00000E-03
 -1        60-7.45058E-09 7.50000E-01 5.00000E-03
 -1        61 1.00000E+00-7.45058E-09-1.00000E-02
 -1        62 1.00000E+00-7.45058E-09 0.00000E+00
 -1        63 1.00000E+00-7.45058E-09 1.00000E-02
 -1        64 1.00000E+00 5.00000E-01-1.00000E-02
 -1        65 1.00000E+00 5.00000E-01 0.00000E+00
 -1        66 1.00000E+00 5.00000E-01 1.00000E-02
 -1        67 7.50000E-01-7.45058E-09-1.25000E-02
 -1        69 7.50000E-01-7.45058E-09 1.25000E-02
 -1        70 1.00000E+00 2.50000E-01-1.00000E-02
 -1        72 1.00000E+00 2.50000E-01 1.00000E-02
 -1        73 7.50000E-01 5.00000E-01-1.25000E-02
 -1        75 7.50000E-01 5.00000E-01 1.25000E-02
 -1        76 1.00000E+00 1.00000E+00-1.00000E-02
 -1        77 1.00000E+00 1.00000E+00 0.00000E+00
 -1        78 1.00000E+00 1.00000E+00 1.00000E-02
 -1        79 1.00000E+00 7.50000E-01-1.00000E-02
 -1        81 1.00000E+00 7.50000E-01 1.00000E-02
 -1        82 7.50000E-01 1.00000E+00-1.25000E-02
 -1        84 7.50000E-01 1.00000E+00 1.25000E-02
 -3
    3C                             4                                     1
 -1         1    4    0    1
 -2        22        25        28        31        24        27        30        33        34        37
 -2        40        43        23        26        29        32        36        39        42        45
 -1         2    4    0    1
 -2        31        28        46        49        33        30        48        51        40        52
 -2        55        58        32        29        47        50        42        54        57        60
 -1         3    4    0    1
 -2        25        61        64        28        27        63        66        30        67        70
 -2        73        37        26        62        65        29        69        72        75        39
 -1         4    4    0    1
 -2        28        64        76        46        30        66        78        48        73        79
 -2        82        52        29        65        77        47        75        81        84        54
 -3
    1PSTEP                         1           5           1          
  100CL  101 5.00000E-06          51                     1    1           1
 -4  DISP        4    1
 -5  D1          1    2    1    0
 -5  D2          1    2    2    0
 -5  D3          1    2    3    0
 -5  ALL         1    2    0    0    1ALL
 -1        22 0.00000E+00 0.00000E+00-2.49018E-09
 -1        23 0.00000E+00 0.00000E+00 0.00000E+00
 -1        24 0.00000E+00 0.00000E+00 2.49018E-09
 -1        25-5.15126E-06-1.74004E-06 1.73016E-05
 -1        26 8.30110E-10 1.44647E-09 1.73139E-05
 -1        27 5.15293E-06 1.74280E-06 1.72991E-05
 -1        28-7.50263E-06 3.01881E-15-9.28236E-06
 -1        29-2.63022E-09 8.95160E-19-9.28733E-06
 -1        30 7.49737E-06-3.01702E-15-9.29230E-06
 -1        31 0.00000E+00 0.00000E+00 1.10983E-09
 -1        32 0.00000E+00 0.00000E+00 0.00000E+00
 -1        33 0.00000E+00 0.00000E+00-1.10983E-09
 -1        34-1.31707E-06-4.52293E-07 1.99187E-05
 -1        36 1.31723E-06 4.52197E-07 1.99162E-05
 -1        37-8.11695E-07-5.32200E-07-3.18088E-06
 -1        39 8.07926E-07 5.33068E-07-3.17967E-06
 -1        40-1.75975E-06 1.41919E-15 1.70427E-05
 -1        42 1.75803E-06-1.41087E-15 1.70438E-05
 -1        43 0.00000E+00 0.00000E+00 1.20290E-09
 -1        45 0.00000E+00 0.00000E+00-1.20290E-09
 -1        46-5.15126E-06 1.74004E-06 1.73016E-05
 -1        47 8.30110E-10-1.44647E-09 1.73139E-05
 -1        48 5.15293E-06-1.74280E-06 1.72991E-05
 -1        49 0.00000E+00 0.00000E+00-2.49018E-09
 -1        50 0.00000E+00 0.00000E+00 0.00000E+00
 -1        51 0.00000E+00 0.00000E+00 2.49018E-09
 -1        52-8.11695E-07 5.32200E-07-3.18088E-06
 -1        54 8.07926E-07-5.33068E-07-3.17967E-06
 -1        55-1.31707E-06 4.52293E-07 1.99187E-05
 -1        57 1.31723E-06-4.52197E-07 1.99162E-05
 -1        58 0.00000E+00 0.00000E+00 1.20290E-09
 -1        60 0.00000E+00 0.00000E+00-1.20290E-09
 -1        61 1.83611E-06-1.58328E-06-4.29869E-05
 -1        62-2.05285E-09 3.97757E-09-4.30122E-05
 -1        63-1.84031E-06 1.59132E-06-4.29814E-05
 -1        64-1.06518E-06-1.18646E-15-1.06270E-04
 -1        65-1.23091E-08-1.69814E-18-1.06276E-04
 -1        66 1.04070E-06 1.18306E-15-1.06272E-04
 -1        67-2.82234E-06-1.94744E-06-1.64063E-05
 -1        69 2.82019E-06 1.95152E-06-1.64092E-05
 -1        70-2.62177E-06-1.36224E-06-8.58731E-05
 -1        72 2.60397E-06 1.36344E-06-8.58757E-05
 -1        73-2.85949E-06 5.91348E-16-5.64180E-05
 -1        75 2.84503E-06-5.84556E-16-5.64172E-05
 -1        76 1.83611E-06 1.58328E-06-4.29869E-05
 -1        77-2.05285E-09-3.97757E-09-4.30122E-05
 -1        78-1.84031E-06-1.59132E-06-4.29815E-05
 -1        79-2.62177E-06 1.36224E-06-8.58731E-05
 -1        81 2.60397E-06-1.36344E-06-8.58757E-05
 -1        82-2.82234E-06 1.94744E-06-1.64063E-05
 -1        84 2.82019E-06-1.95152E-06-1.64092E-05
 -3
 9999
