    1C
    1U3D submodel                                                       
    1UUSER                                                              
    1UDATE              23.june.2025                                    
    1UTIME              09:19:23                                        
    1UHOST                                                              
    1UPGM               CalculiX                                        
    1UVERSION           Version DEVELOPMENT                             
    1UCOMPILETIME       Wed Jun 11 21:49:25 CEST 2025                    
    1UDIR                                                               
    1UDBN                                                               
    1UMAT    1EL                                                        
    2C                           866                                     1
 -1         1 1.29994E+02 4.44903E+01-9.37513E-07
 -1         2 1.30256E+02 4.29903E+01-8.80223E-07
 -1         3 1.30519E+02 4.14903E+01-8.22934E-07
 -1         4 1.30781E+02 3.99903E+01-7.65643E-07
 -1         5 1.31043E+02 3.84903E+01-7.08354E-07
 -1         6 1.31305E+02 3.69903E+01-6.51064E-07
 -1         7 1.31568E+02 3.54903E+01-5.93774E-07
 -1         8 1.31830E+02 3.39903E+01-5.36484E-07
 -1         9 1.32092E+02 3.24903E+01-4.79194E-07
 -1        10 1.32354E+02 3.09903E+01-4.21904E-07
 -1        11 1.32617E+02 2.94903E+01-3.64614E-07
 -1        12 1.34498E+02 2.94903E+01-3.59837E-07
 -1        13 1.36380E+02 2.94903E+01-3.55061E-07
 -1        14 1.36380E+02 3.09903E+01-4.11686E-07
 -1        15 1.36380E+02 3.24903E+01-4.68310E-07
 -1        16 1.36380E+02 3.39903E+01-5.24933E-07
 -1        17 1.36380E+02 3.54903E+01-5.81557E-07
 -1        18 1.36380E+02 3.69903E+01-6.38182E-07
 -1        19 1.36380E+02 3.84903E+01-6.94806E-07
 -1        20 1.36380E+02 3.99903E+01-7.51430E-07
 -1        21 1.36380E+02 4.14903E+01-8.08054E-07
 -1        22 1.36380E+02 4.29903E+01-8.64678E-07
 -1        23 1.36380E+02 4.44903E+01-9.21302E-07
 -1        24 1.34783E+02 4.44903E+01-9.25354E-07
 -1        25 1.33187E+02 4.44903E+01-9.29407E-07
 -1        26 1.31590E+02 4.44903E+01-9.33460E-07
 -1        27 1.35126E+02 3.55001E+01-5.85111E-07
 -1        28 1.33873E+02 3.55100E+01-5.88664E-07
 -1        29 1.32720E+02 3.55001E+01-5.91218E-07
 -1        30 1.34236E+02 3.24903E+01-4.73751E-07
 -1        31 1.32982E+02 3.40001E+01-5.33929E-07
 -1        32 1.35043E+02 3.85224E+01-6.99411E-07
 -1        33 1.33706E+02 3.85545E+01-7.04017E-07
 -1        34 1.32375E+02 3.85224E+01-7.06185E-07
 -1        35 1.33789E+02 3.70322E+01-6.46340E-07
 -1        36 1.34912E+02 4.15190E+01-8.12863E-07
 -1        37 1.33444E+02 4.15477E+01-8.17673E-07
 -1        38 1.31981E+02 4.15190E+01-8.20303E-07
 -1        39 1.33575E+02 4.00511E+01-7.60844E-07
 -1        40 1.33315E+02 4.30190E+01-8.73540E-07
 -1        41 1.36380E+02 2.82036E+01-3.06490E-07
 -1        42 1.36380E+02 2.69170E+01-2.57919E-07
 -1        43 1.36380E+02 2.56303E+01-2.09348E-07
 -1        44 1.36380E+02 2.43436E+01-1.60776E-07
 -1        45 1.36380E+02 2.30569E+01-1.12206E-07
 -1        46 1.36380E+02 2.17703E+01-6.36338E-08
 -1        47 1.37630E+02 2.27397E+01-9.70546E-08
 -1        48 1.38880E+02 2.37091E+01-1.30476E-07
 -1        49 1.40130E+02 2.46784E+01-1.63895E-07
 -1        50 1.41380E+02 2.56478E+01-1.97317E-07
 -1        51 1.41380E+02 2.75691E+01-2.69842E-07
 -1        52 1.41380E+02 2.94903E+01-3.42368E-07
 -1        53 1.41380E+02 3.09903E+01-3.98991E-07
 -1        54 1.41380E+02 3.24903E+01-4.55615E-07
 -1        55 1.41380E+02 3.39903E+01-5.12239E-07
 -1        56 1.41380E+02 3.54903E+01-5.68864E-07
 -1        57 1.41380E+02 3.69903E+01-6.25488E-07
 -1        58 1.41380E+02 3.84903E+01-6.82112E-07
 -1        59 1.41380E+02 3.99903E+01-7.38736E-07
 -1        60 1.41380E+02 4.14903E+01-7.95360E-07
 -1        61 1.41380E+02 4.29903E+01-8.51984E-07
 -1        62 1.41380E+02 4.44903E+01-9.08608E-07
 -1        63 1.41380E+02 4.63224E+01-9.77771E-07
 -1        64 1.41380E+02 4.81546E+01-1.04693E-06
 -1        65 1.40130E+02 4.88500E+01-1.07636E-06
 -1        66 1.38880E+02 4.95454E+01-1.10578E-06
 -1        67 1.37630E+02 5.02409E+01-1.13521E-06
 -1        68 1.36380E+02 5.09363E+01-1.16463E-06
 -1        69 1.36380E+02 4.93248E+01-1.10380E-06
 -1        70 1.36380E+02 4.77133E+01-1.04297E-06
 -1        71 1.36380E+02 4.61018E+01-9.82135E-07
 -1        72 1.37630E+02 2.40263E+01-1.45626E-07
 -1        73 1.38873E+02 2.51868E+01-1.86278E-07
 -1        74 1.37623E+02 2.67908E+01-2.50000E-07
 -1        75 1.38867E+02 2.66646E+01-2.42079E-07
 -1        76 1.40123E+02 2.61562E+01-2.19697E-07
 -1        77 1.38895E+02 2.80784E+01-2.95378E-07
 -1        78 1.37651E+02 2.94912E+01-3.51868E-07
 -1        79 1.38923E+02 2.94922E+01-3.48676E-07
 -1        80 1.40151E+02 2.94912E+01-3.45522E-07
 -1        81 1.38901E+02 3.09843E+01-4.05058E-07
 -1        82 1.37630E+02 3.24834E+01-4.64876E-07
 -1        83 1.38880E+02 3.24765E+01-4.61442E-07
 -1        84 1.40130E+02 3.24834E+01-4.58528E-07
 -1        85 1.38880E+02 3.39795E+01-5.18181E-07
 -1        86 1.37630E+02 3.54864E+01-5.78239E-07
 -1        87 1.38880E+02 3.54826E+01-5.74919E-07
 -1        88 1.40130E+02 3.54864E+01-5.71891E-07
 -1        89 1.38880E+02 3.69846E+01-6.31619E-07
 -1        90 1.37630E+02 3.84885E+01-6.91561E-07
 -1        91 1.38880E+02 3.84866E+01-6.88319E-07
 -1        92 1.40130E+02 3.84885E+01-6.85215E-07
 -1        93 1.38880E+02 3.99858E+01-7.44913E-07
 -1        94 1.37630E+02 4.14877E+01-8.04781E-07
 -1        95 1.38880E+02 4.14850E+01-8.01508E-07
 -1        96 1.40130E+02 4.14877E+01-7.98434E-07
 -1        97 1.38887E+02 4.29630E+01-8.57282E-07
 -1        98 1.37637E+02 4.44657E+01-9.17179E-07
 -1        99 1.38895E+02 4.44410E+01-9.13055E-07
 -1       100 1.38854E+02 4.57831E+01-9.63823E-07
 -1       101 1.40137E+02 4.44657E+01-9.10831E-07
 -1       102 1.37596E+02 4.74192E+01-1.02878E-06
 -1       103 1.38812E+02 4.71251E+01-1.01459E-06
 -1       104 1.38846E+02 4.83353E+01-1.06019E-06
 -1       105 1.40096E+02 4.76399E+01-1.03076E-06
 -1       106 1.44653E+02 2.94903E+01-3.34059E-07
 -1       107 1.45007E+02 3.09903E+01-3.89785E-07
 -1       108 1.45361E+02 3.24903E+01-4.45510E-07
 -1       109 1.45715E+02 3.39903E+01-5.01235E-07
 -1       110 1.46069E+02 3.54903E+01-5.56961E-07
 -1       111 1.46423E+02 3.69903E+01-6.12687E-07
 -1       112 1.46777E+02 3.84903E+01-6.68411E-07
 -1       113 1.47131E+02 3.99903E+01-7.24137E-07
 -1       114 1.47485E+02 4.14903E+01-7.79862E-07
 -1       115 1.47839E+02 4.29903E+01-8.35587E-07
 -1       116 1.48193E+02 4.44903E+01-8.91313E-07
 -1       117 1.46490E+02 4.44903E+01-8.95636E-07
 -1       118 1.44786E+02 4.44903E+01-8.99960E-07
 -1       119 1.43083E+02 4.44903E+01-9.04285E-07
 -1       120 1.43016E+02 2.94903E+01-3.38214E-07
 -1       121 1.42734E+02 3.85349E+01-6.80357E-07
 -1       122 1.44088E+02 3.85795E+01-6.78603E-07
 -1       123 1.45433E+02 3.85349E+01-6.73507E-07
 -1       124 1.42910E+02 4.15277E+01-7.92885E-07
 -1       125 1.44441E+02 4.15650E+01-7.90410E-07
 -1       126 1.45963E+02 4.15277E+01-7.85136E-07
 -1       127 1.44614E+02 4.30277E+01-8.45185E-07
 -1       128 1.44265E+02 4.00723E+01-7.34506E-07
 -1       129 1.42601E+02 3.55118E+01-5.66575E-07
 -1       130 1.43823E+02 3.55333E+01-5.64286E-07
 -1       131 1.44946E+02 3.55118E+01-5.60623E-07
 -1       132 1.43956E+02 3.70564E+01-6.21444E-07
 -1       133 1.43370E+02 3.24903E+01-4.50562E-07
 -1       134 1.44592E+02 3.40118E+01-5.04898E-07
 -1       135 1.32490E+02 2.94903E+01 5.78466E+00
 -1       136 1.32585E+02 2.94903E+01 2.89302E+00
 -1       137 1.34370E+02 2.94903E+01 5.86673E+00
 -1       138 1.36250E+02 2.94903E+01 5.94880E+00
 -1       139 1.36347E+02 2.94903E+01 2.97511E+00
 -1       140 1.36250E+02 3.09903E+01 5.94880E+00
 -1       141 1.36250E+02 3.24903E+01 5.94880E+00
 -1       142 1.36347E+02 3.24903E+01 2.97511E+00
 -1       143 1.34108E+02 3.24903E+01 5.85529E+00
 -1       144 1.31966E+02 3.24903E+01 5.76178E+00
 -1       145 1.32061E+02 3.24903E+01 2.88157E+00
 -1       146 1.32228E+02 3.09903E+01 5.77322E+00
 -1       147 1.36250E+02 3.54903E+01 5.94880E+00
 -1       148 1.36347E+02 3.54903E+01 2.97511E+00
 -1       149 1.34998E+02 3.55001E+01 5.89412E+00
 -1       150 1.33745E+02 3.55100E+01 5.83945E+00
 -1       151 1.33841E+02 3.55100E+01 2.92042E+00
 -1       152 1.32856E+02 3.40001E+01 5.80061E+00
 -1       153 1.36250E+02 3.39903E+01 5.94880E+00
 -1       154 1.32594E+02 3.55001E+01 5.78917E+00
 -1       155 1.31442E+02 3.54903E+01 5.73890E+00
 -1       156 1.31536E+02 3.54903E+01 2.87013E+00
 -1       157 1.31704E+02 3.39903E+01 5.75034E+00
 -1       158 1.36250E+02 3.84903E+01 5.94880E+00
 -1       159 1.36347E+02 3.84903E+01 2.97511E+00
 -1       160 1.34914E+02 3.85224E+01 5.89049E+00
 -1       161 1.33579E+02 3.85545E+01 5.83217E+00
 -1       162 1.33674E+02 3.85545E+01 2.91678E+00
 -1       163 1.33662E+02 3.70322E+01 5.83581E+00
 -1       164 1.36250E+02 3.69903E+01 5.94880E+00
 -1       165 1.32249E+02 3.85224E+01 5.77410E+00
 -1       166 1.30918E+02 3.84903E+01 5.71602E+00
 -1       167 1.31012E+02 3.84903E+01 2.85869E+00
 -1       168 1.31180E+02 3.69903E+01 5.72746E+00
 -1       169 1.36250E+02 4.14903E+01 5.94880E+00
 -1       170 1.36347E+02 4.14903E+01 2.97511E+00
 -1       171 1.34784E+02 4.15190E+01 5.88478E+00
 -1       172 1.33317E+02 4.15477E+01 5.82075E+00
 -1       173 1.33412E+02 4.15477E+01 2.91107E+00
 -1       174 1.33448E+02 4.00511E+01 5.82646E+00
 -1       175 1.36250E+02 3.99903E+01 5.94880E+00
 -1       176 1.31856E+02 4.15190E+01 5.75694E+00
 -1       177 1.30394E+02 4.14903E+01 5.69314E+00
 -1       178 1.30487E+02 4.14903E+01 2.84725E+00
 -1       179 1.30656E+02 3.99903E+01 5.70458E+00
 -1       180 1.36250E+02 4.44903E+01 5.94880E+00
 -1       181 1.36347E+02 4.44903E+01 2.97511E+00
 -1       182 1.34655E+02 4.44903E+01 5.87916E+00
 -1       183 1.33060E+02 4.44903E+01 5.80953E+00
 -1       184 1.33155E+02 4.44903E+01 2.90546E+00
 -1       185 1.33189E+02 4.30190E+01 5.81514E+00
 -1       186 1.36250E+02 4.29903E+01 5.94880E+00
 -1       187 1.31465E+02 4.44903E+01 5.73989E+00
 -1       188 1.29870E+02 4.44903E+01 5.67026E+00
 -1       189 1.29963E+02 4.44903E+01 2.83580E+00
 -1       190 1.30132E+02 4.29903E+01 5.68170E+00
 -1       191 1.36250E+02 2.43436E+01 5.94880E+00
 -1       192 1.36347E+02 2.43436E+01 2.97511E+00
 -1       193 1.36250E+02 2.30569E+01 5.94880E+00
 -1       194 1.36250E+02 2.17703E+01 5.94880E+00
 -1       195 1.36347E+02 2.17703E+01 2.97511E+00
 -1       196 1.37499E+02 2.27397E+01 6.00333E+00
 -1       197 1.38748E+02 2.37091E+01 6.05785E+00
 -1       198 1.38847E+02 2.37091E+01 3.02965E+00
 -1       199 1.37499E+02 2.40263E+01 6.00333E+00
 -1       200 1.36250E+02 2.69170E+01 5.94880E+00
 -1       201 1.36347E+02 2.69170E+01 2.97511E+00
 -1       202 1.36250E+02 2.56303E+01 5.94880E+00
 -1       203 1.38741E+02 2.51868E+01 6.05757E+00
 -1       204 1.38735E+02 2.66646E+01 6.05730E+00
 -1       205 1.38834E+02 2.66646E+01 3.02937E+00
 -1       206 1.37492E+02 2.67908E+01 6.00305E+00
 -1       207 1.39996E+02 2.46784E+01 6.11237E+00
 -1       208 1.41245E+02 2.56478E+01 6.16690E+00
 -1       209 1.41346E+02 2.56478E+01 3.08418E+00
 -1       210 1.39990E+02 2.61562E+01 6.11210E+00
 -1       211 1.38763E+02 2.80784E+01 6.05851E+00
 -1       212 1.38790E+02 2.94922E+01 6.05972E+00
 -1       213 1.38890E+02 2.94922E+01 3.03058E+00
 -1       214 1.37520E+02 2.94912E+01 6.00426E+00
 -1       215 1.36250E+02 2.82036E+01 5.94880E+00
 -1       216 1.41245E+02 2.75691E+01 6.16690E+00
 -1       217 1.41245E+02 2.94903E+01 6.16690E+00
 -1       218 1.41346E+02 2.94903E+01 3.08418E+00
 -1       219 1.40018E+02 2.94912E+01 6.11331E+00
 -1       220 1.38769E+02 3.09843E+01 6.05879E+00
 -1       221 1.38748E+02 3.24765E+01 6.05785E+00
 -1       222 1.38847E+02 3.24765E+01 3.02965E+00
 -1       223 1.37499E+02 3.24834E+01 6.00333E+00
 -1       224 1.41245E+02 3.09903E+01 6.16690E+00
 -1       225 1.41245E+02 3.24903E+01 6.16690E+00
 -1       226 1.41346E+02 3.24903E+01 3.08418E+00
 -1       227 1.39996E+02 3.24834E+01 6.11238E+00
 -1       228 1.38748E+02 3.39795E+01 6.05785E+00
 -1       229 1.38748E+02 3.54826E+01 6.05785E+00
 -1       230 1.38847E+02 3.54826E+01 3.02965E+00
 -1       231 1.37499E+02 3.54864E+01 6.00332E+00
 -1       232 1.41245E+02 3.39903E+01 6.16690E+00
 -1       233 1.41245E+02 3.54903E+01 6.16690E+00
 -1       234 1.41346E+02 3.54903E+01 3.08418E+00
 -1       235 1.39996E+02 3.54864E+01 6.11237E+00
 -1       236 1.38748E+02 3.69846E+01 6.05785E+00
 -1       237 1.38748E+02 3.84866E+01 6.05785E+00
 -1       238 1.38847E+02 3.84866E+01 3.02965E+00
 -1       239 1.37499E+02 3.84885E+01 6.00332E+00
 -1       240 1.41245E+02 3.69903E+01 6.16690E+00
 -1       241 1.41245E+02 3.84903E+01 6.16690E+00
 -1       242 1.41346E+02 3.84903E+01 3.08418E+00
 -1       243 1.39996E+02 3.84885E+01 6.11237E+00
 -1       244 1.38748E+02 3.99858E+01 6.05785E+00
 -1       245 1.38748E+02 4.14850E+01 6.05785E+00
 -1       246 1.38847E+02 4.14850E+01 3.02965E+00
 -1       247 1.37499E+02 4.14877E+01 6.00332E+00
 -1       248 1.41245E+02 3.99903E+01 6.16690E+00
 -1       249 1.41245E+02 4.14903E+01 6.16690E+00
 -1       250 1.41346E+02 4.14903E+01 3.08418E+00
 -1       251 1.39996E+02 4.14877E+01 6.11237E+00
 -1       252 1.38755E+02 4.29630E+01 6.05818E+00
 -1       253 1.38763E+02 4.44410E+01 6.05852E+00
 -1       254 1.38862E+02 4.44410E+01 3.02998E+00
 -1       255 1.37506E+02 4.44657E+01 6.00366E+00
 -1       256 1.41245E+02 4.29903E+01 6.16690E+00
 -1       257 1.41245E+02 4.44903E+01 6.16690E+00
 -1       258 1.41346E+02 4.44903E+01 3.08418E+00
 -1       259 1.40004E+02 4.44657E+01 6.11271E+00
 -1       260 1.36250E+02 4.77133E+01 5.94880E+00
 -1       261 1.36347E+02 4.77133E+01 2.97511E+00
 -1       262 1.36250E+02 4.61018E+01 5.94880E+00
 -1       263 1.38721E+02 4.57831E+01 6.05671E+00
 -1       264 1.38680E+02 4.71251E+01 6.05490E+00
 -1       265 1.38779E+02 4.71251E+01 3.02817E+00
 -1       266 1.37465E+02 4.74192E+01 6.00185E+00
 -1       267 1.41245E+02 4.81546E+01 6.16690E+00
 -1       268 1.41346E+02 4.81546E+01 3.08418E+00
 -1       269 1.39963E+02 4.76399E+01 6.11090E+00
 -1       270 1.41245E+02 4.63224E+01 6.16690E+00
 -1       271 1.36250E+02 5.09363E+01 5.94880E+00
 -1       272 1.36347E+02 5.09363E+01 2.97511E+00
 -1       273 1.36250E+02 4.93248E+01 5.94880E+00
 -1       274 1.38714E+02 4.83353E+01 6.05638E+00
 -1       275 1.38748E+02 4.95454E+01 6.05785E+00
 -1       276 1.38847E+02 4.95454E+01 3.02964E+00
 -1       277 1.37499E+02 5.02409E+01 6.00332E+00
 -1       278 1.39996E+02 4.88500E+01 6.11237E+00
 -1       279 1.42774E+02 4.15277E+01 6.23366E+00
 -1       280 1.44304E+02 4.15650E+01 6.30043E+00
 -1       281 1.44407E+02 4.15650E+01 3.15097E+00
 -1       282 1.44476E+02 4.30277E+01 6.30796E+00
 -1       283 1.44649E+02 4.44903E+01 6.31549E+00
 -1       284 1.44752E+02 4.44903E+01 3.15850E+00
 -1       285 1.42947E+02 4.44903E+01 6.24119E+00
 -1       286 1.45824E+02 4.15277E+01 6.36682E+00
 -1       287 1.47344E+02 4.14903E+01 6.43320E+00
 -1       288 1.47450E+02 4.14903E+01 3.21736E+00
 -1       289 1.47698E+02 4.29903E+01 6.44864E+00
 -1       290 1.48052E+02 4.44903E+01 6.46408E+00
 -1       291 1.48158E+02 4.44903E+01 3.23281E+00
 -1       292 1.46350E+02 4.44903E+01 6.38979E+00
 -1       293 1.42598E+02 3.85349E+01 6.22597E+00
 -1       294 1.43951E+02 3.85795E+01 6.28505E+00
 -1       295 1.44054E+02 3.85795E+01 3.14327E+00
 -1       296 1.44128E+02 4.00723E+01 6.29274E+00
 -1       297 1.45294E+02 3.85349E+01 6.34368E+00
 -1       298 1.46637E+02 3.84903E+01 6.40231E+00
 -1       299 1.46742E+02 3.84903E+01 3.20192E+00
 -1       300 1.46991E+02 3.99903E+01 6.41776E+00
 -1       301 1.42466E+02 3.55118E+01 6.22019E+00
 -1       302 1.43686E+02 3.55333E+01 6.27347E+00
 -1       303 1.43789E+02 3.55333E+01 3.13748E+00
 -1       304 1.43819E+02 3.70564E+01 6.27926E+00
 -1       305 1.44808E+02 3.55118E+01 6.32245E+00
 -1       306 1.45930E+02 3.54903E+01 6.37143E+00
 -1       307 1.46034E+02 3.54903E+01 3.18647E+00
 -1       308 1.46283E+02 3.69903E+01 6.38687E+00
 -1       309 1.45222E+02 3.24903E+01 6.34054E+00
 -1       310 1.45326E+02 3.24903E+01 3.17102E+00
 -1       311 1.44454E+02 3.40118E+01 6.30701E+00
 -1       312 1.43234E+02 3.24903E+01 6.25372E+00
 -1       313 1.45576E+02 3.39903E+01 6.35598E+00
 -1       314 1.42880E+02 2.94903E+01 6.23828E+00
 -1       315 1.44515E+02 2.94903E+01 6.30965E+00
 -1       316 1.44618E+02 2.94903E+01 3.15558E+00
 -1       317 1.44869E+02 3.09903E+01 6.32510E+00
 -1       318 1.32112E+02 2.94903E+01 1.15583E+01
 -1       319 1.32333E+02 2.94903E+01 8.67354E+00
 -1       320 1.33986E+02 2.94903E+01 1.17223E+01
 -1       321 1.35861E+02 2.94903E+01 1.18863E+01
 -1       322 1.36088E+02 2.94903E+01 8.91966E+00
 -1       323 1.35861E+02 3.09903E+01 1.18863E+01
 -1       324 1.35861E+02 3.24903E+01 1.18863E+01
 -1       325 1.36088E+02 3.24903E+01 8.91966E+00
 -1       326 1.33725E+02 3.24903E+01 1.16994E+01
 -1       327 1.31589E+02 3.24903E+01 1.15126E+01
 -1       328 1.31809E+02 3.24903E+01 8.63924E+00
 -1       329 1.31851E+02 3.09903E+01 1.15354E+01
 -1       330 1.35861E+02 3.54903E+01 1.18863E+01
 -1       331 1.36088E+02 3.54903E+01 8.91966E+00
 -1       332 1.34612E+02 3.55001E+01 1.17770E+01
 -1       333 1.33363E+02 3.55100E+01 1.16678E+01
 -1       334 1.33586E+02 3.55100E+01 8.75570E+00
 -1       335 1.32476E+02 3.40001E+01 1.15902E+01
 -1       336 1.35861E+02 3.39903E+01 1.18863E+01
 -1       337 1.32215E+02 3.55001E+01 1.15673E+01
 -1       338 1.31067E+02 3.54903E+01 1.14669E+01
 -1       339 1.31286E+02 3.54903E+01 8.60493E+00
 -1       340 1.31328E+02 3.39903E+01 1.14897E+01
 -1       341 1.35861E+02 3.84903E+01 1.18863E+01
 -1       342 1.36088E+02 3.84903E+01 8.91966E+00
 -1       343 1.34529E+02 3.85224E+01 1.17698E+01
 -1       344 1.33197E+02 3.85545E+01 1.16532E+01
 -1       345 1.33420E+02 3.85545E+01 8.74479E+00
 -1       346 1.33280E+02 3.70322E+01 1.16605E+01
 -1       347 1.35861E+02 3.69903E+01 1.18863E+01
 -1       348 1.31871E+02 3.85224E+01 1.15372E+01
 -1       349 1.30544E+02 3.84903E+01 1.14212E+01
 -1       350 1.30762E+02 3.84903E+01 8.57062E+00
 -1       351 1.30806E+02 3.69903E+01 1.14440E+01
 -1       352 1.35861E+02 4.14903E+01 1.18863E+01
 -1       353 1.36088E+02 4.14903E+01 8.91966E+00
 -1       354 1.34399E+02 4.15190E+01 1.17583E+01
 -1       355 1.32936E+02 4.15477E+01 1.16304E+01
 -1       356 1.33158E+02 4.15477E+01 8.72766E+00
 -1       357 1.33067E+02 4.00511E+01 1.16418E+01
 -1       358 1.35861E+02 3.99903E+01 1.18863E+01
 -1       359 1.31479E+02 4.15190E+01 1.15029E+01
 -1       360 1.30022E+02 4.14903E+01 1.13754E+01
 -1       361 1.30239E+02 4.14903E+01 8.53632E+00
 -1       362 1.30283E+02 3.99903E+01 1.13983E+01
 -1       363 1.35861E+02 4.44903E+01 1.18863E+01
 -1       364 1.36088E+02 4.44903E+01 8.91966E+00
 -1       365 1.34270E+02 4.44903E+01 1.17471E+01
 -1       366 1.32680E+02 4.44903E+01 1.16080E+01
 -1       367 1.32902E+02 4.44903E+01 8.71084E+00
 -1       368 1.32808E+02 4.30190E+01 1.16192E+01
 -1       369 1.35861E+02 4.29903E+01 1.18863E+01
 -1       370 1.31090E+02 4.44903E+01 1.14689E+01
 -1       371 1.29499E+02 4.44903E+01 1.13297E+01
 -1       372 1.29716E+02 4.44903E+01 8.50201E+00
 -1       373 1.29761E+02 4.29903E+01 1.13526E+01
 -1       374 1.35861E+02 2.43436E+01 1.18863E+01
 -1       375 1.36088E+02 2.43436E+01 8.91966E+00
 -1       376 1.35861E+02 2.30569E+01 1.18863E+01
 -1       377 1.35861E+02 2.17703E+01 1.18863E+01
 -1       378 1.36088E+02 2.17703E+01 8.91966E+00
 -1       379 1.37106E+02 2.27397E+01 1.19952E+01
 -1       380 1.38351E+02 2.37091E+01 1.21042E+01
 -1       381 1.38582E+02 2.37091E+01 9.08317E+00
 -1       382 1.37106E+02 2.40263E+01 1.19952E+01
 -1       383 1.35861E+02 2.69170E+01 1.18863E+01
 -1       384 1.36088E+02 2.69170E+01 8.91966E+00
 -1       385 1.35861E+02 2.56303E+01 1.18863E+01
 -1       386 1.38345E+02 2.51868E+01 1.21036E+01
 -1       387 1.38339E+02 2.66646E+01 1.21031E+01
 -1       388 1.38570E+02 2.66646E+01 9.08235E+00
 -1       389 1.37100E+02 2.67908E+01 1.19947E+01
 -1       390 1.39597E+02 2.46784E+01 1.22131E+01
 -1       391 1.40842E+02 2.56478E+01 1.23221E+01
 -1       392 1.41077E+02 2.56478E+01 9.24668E+00
 -1       393 1.39590E+02 2.61562E+01 1.22126E+01
 -1       394 1.38366E+02 2.80784E+01 1.21055E+01
 -1       395 1.38394E+02 2.94922E+01 1.21079E+01
 -1       396 1.38625E+02 2.94922E+01 9.08598E+00
 -1       397 1.37127E+02 2.94912E+01 1.19971E+01
 -1       398 1.35861E+02 2.82036E+01 1.18863E+01
 -1       399 1.40842E+02 2.75691E+01 1.23221E+01
 -1       400 1.40842E+02 2.94903E+01 1.23221E+01
 -1       401 1.41077E+02 2.94903E+01 9.24668E+00
 -1       402 1.39618E+02 2.94912E+01 1.22150E+01
 -1       403 1.38373E+02 3.09843E+01 1.21060E+01
 -1       404 1.38351E+02 3.24765E+01 1.21042E+01
 -1       405 1.38583E+02 3.24765E+01 9.08318E+00
 -1       406 1.37106E+02 3.24834E+01 1.19952E+01
 -1       407 1.40842E+02 3.09903E+01 1.23221E+01
 -1       408 1.40842E+02 3.24903E+01 1.23221E+01
 -1       409 1.41077E+02 3.24903E+01 9.24668E+00
 -1       410 1.39597E+02 3.24834E+01 1.22131E+01
 -1       411 1.38351E+02 3.39795E+01 1.21042E+01
 -1       412 1.38351E+02 3.54826E+01 1.21042E+01
 -1       413 1.38582E+02 3.54826E+01 9.08317E+00
 -1       414 1.37106E+02 3.54864E+01 1.19952E+01
 -1       415 1.40842E+02 3.39903E+01 1.23221E+01
 -1       416 1.40842E+02 3.54903E+01 1.23221E+01
 -1       417 1.41077E+02 3.54903E+01 9.24668E+00
 -1       418 1.39597E+02 3.54864E+01 1.22131E+01
 -1       419 1.38351E+02 3.69846E+01 1.21042E+01
 -1       420 1.38351E+02 3.84866E+01 1.21042E+01
 -1       421 1.38582E+02 3.84866E+01 9.08317E+00
 -1       422 1.37106E+02 3.84885E+01 1.19952E+01
 -1       423 1.40842E+02 3.69903E+01 1.23221E+01
 -1       424 1.40842E+02 3.84903E+01 1.23221E+01
 -1       425 1.41077E+02 3.84903E+01 9.24668E+00
 -1       426 1.39597E+02 3.84885E+01 1.22131E+01
 -1       427 1.38351E+02 3.99858E+01 1.21042E+01
 -1       428 1.38351E+02 4.14850E+01 1.21042E+01
 -1       429 1.38582E+02 4.14850E+01 9.08317E+00
 -1       430 1.37106E+02 4.14877E+01 1.19952E+01
 -1       431 1.40842E+02 3.99903E+01 1.23221E+01
 -1       432 1.40842E+02 4.14903E+01 1.23221E+01
 -1       433 1.41077E+02 4.14903E+01 9.24668E+00
 -1       434 1.39597E+02 4.14877E+01 1.22131E+01
 -1       435 1.38359E+02 4.29630E+01 1.21048E+01
 -1       436 1.38367E+02 4.44410E+01 1.21055E+01
 -1       437 1.38598E+02 4.44410E+01 9.08417E+00
 -1       438 1.37114E+02 4.44657E+01 1.19959E+01
 -1       439 1.40842E+02 4.29903E+01 1.23221E+01
 -1       440 1.40842E+02 4.44903E+01 1.23221E+01
 -1       441 1.41077E+02 4.44903E+01 9.24668E+00
 -1       442 1.39604E+02 4.44657E+01 1.22138E+01
 -1       443 1.35861E+02 4.77133E+01 1.18863E+01
 -1       444 1.36088E+02 4.77133E+01 8.91966E+00
 -1       445 1.35861E+02 4.61018E+01 1.18863E+01
 -1       446 1.38325E+02 4.57831E+01 1.21019E+01
 -1       447 1.38284E+02 4.71251E+01 1.20983E+01
 -1       448 1.38515E+02 4.71251E+01 9.07875E+00
 -1       449 1.37072E+02 4.74192E+01 1.19923E+01
 -1       450 1.40842E+02 4.81546E+01 1.23221E+01
 -1       451 1.41077E+02 4.81546E+01 9.24668E+00
 -1       452 1.39563E+02 4.76399E+01 1.22102E+01
 -1       453 1.40842E+02 4.63224E+01 1.23221E+01
 -1       454 1.35861E+02 5.09363E+01 1.18863E+01
 -1       455 1.36088E+02 5.09363E+01 8.91966E+00
 -1       456 1.35861E+02 4.93248E+01 1.18863E+01
 -1       457 1.38318E+02 4.83353E+01 1.21012E+01
 -1       458 1.38351E+02 4.95454E+01 1.21042E+01
 -1       459 1.38582E+02 4.95454E+01 9.08317E+00
 -1       460 1.37106E+02 5.02409E+01 1.19952E+01
 -1       461 1.39597E+02 4.88500E+01 1.22131E+01
 -1       462 1.42367E+02 4.15277E+01 1.24555E+01
 -1       463 1.43891E+02 4.15650E+01 1.25889E+01
 -1       464 1.44132E+02 4.15650E+01 9.44690E+00
 -1       465 1.44063E+02 4.30277E+01 1.26039E+01
 -1       466 1.44235E+02 4.44903E+01 1.26190E+01
 -1       467 1.44476E+02 4.44903E+01 9.46948E+00
 -1       468 1.42539E+02 4.44903E+01 1.24705E+01
 -1       469 1.45408E+02 4.15277E+01 1.27215E+01
 -1       470 1.46924E+02 4.14903E+01 1.28542E+01
 -1       471 1.47169E+02 4.14903E+01 9.64597E+00
 -1       472 1.47276E+02 4.29903E+01 1.28850E+01
 -1       473 1.47629E+02 4.44903E+01 1.29159E+01
 -1       474 1.47876E+02 4.44903E+01 9.69228E+00
 -1       475 1.45932E+02 4.44903E+01 1.27674E+01
 -1       476 1.42191E+02 3.85349E+01 1.24401E+01
 -1       477 1.43540E+02 3.85795E+01 1.25581E+01
 -1       478 1.43780E+02 3.85795E+01 9.42384E+00
 -1       479 1.43716E+02 4.00723E+01 1.25735E+01
 -1       480 1.44879E+02 3.85349E+01 1.26753E+01
 -1       481 1.46218E+02 3.84903E+01 1.27924E+01
 -1       482 1.46463E+02 3.84903E+01 9.59966E+00
 -1       483 1.46571E+02 3.99903E+01 1.28233E+01
 -1       484 1.42059E+02 3.55118E+01 1.24285E+01
 -1       485 1.43276E+02 3.55333E+01 1.25350E+01
 -1       486 1.43515E+02 3.55333E+01 9.40648E+00
 -1       487 1.43408E+02 3.70564E+01 1.25466E+01
 -1       488 1.44394E+02 3.55118E+01 1.26329E+01
 -1       489 1.45513E+02 3.54903E+01 1.27307E+01
 -1       490 1.45756E+02 3.54903E+01 9.55335E+00
 -1       491 1.45866E+02 3.69903E+01 1.27616E+01
 -1       492 1.44807E+02 3.24903E+01 1.26690E+01
 -1       493 1.45049E+02 3.24903E+01 9.50704E+00
 -1       494 1.44042E+02 3.40118E+01 1.26020E+01
 -1       495 1.42825E+02 3.24903E+01 1.24955E+01
 -1       496 1.45160E+02 3.39903E+01 1.26999E+01
 -1       497 1.42472E+02 2.94903E+01 1.24647E+01
 -1       498 1.44102E+02 2.94903E+01 1.26073E+01
 -1       499 1.44343E+02 2.94903E+01 9.46073E+00
 -1       500 1.44455E+02 3.09903E+01 1.26382E+01
 -1       501 1.31482E+02 2.94903E+01 1.73099E+01
 -1       502 1.31828E+02 2.94903E+01 1.44376E+01
 -1       503 1.33348E+02 2.94903E+01 1.75555E+01
 -1       504 1.35213E+02 2.94903E+01 1.78011E+01
 -1       505 1.35569E+02 2.94903E+01 1.48472E+01
 -1       506 1.35213E+02 3.09903E+01 1.78011E+01
 -1       507 1.35213E+02 3.24903E+01 1.78011E+01
 -1       508 1.35569E+02 3.24903E+01 1.48472E+01
 -1       509 1.33088E+02 3.24903E+01 1.75213E+01
 -1       510 1.30962E+02 3.24903E+01 1.72415E+01
 -1       511 1.31307E+02 3.24903E+01 1.43805E+01
 -1       512 1.31222E+02 3.09903E+01 1.72757E+01
 -1       513 1.35213E+02 3.54903E+01 1.78011E+01
 -1       514 1.35569E+02 3.54903E+01 1.48472E+01
 -1       515 1.33970E+02 3.55001E+01 1.76375E+01
 -1       516 1.32728E+02 3.55100E+01 1.74739E+01
 -1       517 1.33077E+02 3.55100E+01 1.45743E+01
 -1       518 1.31845E+02 3.40001E+01 1.73577E+01
 -1       519 1.35213E+02 3.39903E+01 1.78011E+01
 -1       520 1.31585E+02 3.55001E+01 1.73235E+01
 -1       521 1.30442E+02 3.54903E+01 1.71730E+01
 -1       522 1.30786E+02 3.54903E+01 1.43233E+01
 -1       523 1.30702E+02 3.39903E+01 1.72072E+01
 -1       524 1.35213E+02 3.84903E+01 1.78011E+01
 -1       525 1.35569E+02 3.84903E+01 1.48472E+01
 -1       526 1.33888E+02 3.85224E+01 1.76266E+01
 -1       527 1.32562E+02 3.85545E+01 1.74521E+01
 -1       528 1.32911E+02 3.85545E+01 1.45562E+01
 -1       529 1.32645E+02 3.70322E+01 1.74630E+01
 -1       530 1.35213E+02 3.69903E+01 1.78011E+01
 -1       531 1.31242E+02 3.85224E+01 1.72783E+01
 -1       532 1.29922E+02 3.84903E+01 1.71045E+01
 -1       533 1.30264E+02 3.84903E+01 1.42662E+01
 -1       534 1.30182E+02 3.69903E+01 1.71388E+01
 -1       535 1.35213E+02 4.14903E+01 1.78011E+01
 -1       536 1.35569E+02 4.14903E+01 1.48472E+01
 -1       537 1.33758E+02 4.15190E+01 1.76095E+01
 -1       538 1.32302E+02 4.15477E+01 1.74180E+01
 -1       539 1.32651E+02 4.15477E+01 1.45276E+01
 -1       540 1.32432E+02 4.00511E+01 1.74350E+01
 -1       541 1.35213E+02 3.99903E+01 1.78011E+01
 -1       542 1.30852E+02 4.15190E+01 1.72270E+01
 -1       543 1.29402E+02 4.14903E+01 1.70361E+01
 -1       544 1.29743E+02 4.14903E+01 1.42091E+01
 -1       545 1.29662E+02 3.99903E+01 1.70703E+01
 -1       546 1.35213E+02 4.44903E+01 1.78011E+01
 -1       547 1.35569E+02 4.44903E+01 1.48472E+01
 -1       548 1.33630E+02 4.44903E+01 1.75928E+01
 -1       549 1.32047E+02 4.44903E+01 1.73844E+01
 -1       550 1.32395E+02 4.44903E+01 1.44996E+01
 -1       551 1.32175E+02 4.30190E+01 1.74012E+01
 -1       552 1.35213E+02 4.29903E+01 1.78011E+01
 -1       553 1.30465E+02 4.44903E+01 1.71760E+01
 -1       554 1.28882E+02 4.44903E+01 1.69676E+01
 -1       555 1.29221E+02 4.44903E+01 1.41520E+01
 -1       556 1.29142E+02 4.29903E+01 1.70019E+01
 -1       557 1.35213E+02 2.43436E+01 1.78011E+01
 -1       558 1.35569E+02 2.43436E+01 1.48472E+01
 -1       559 1.35213E+02 2.30569E+01 1.78011E+01
 -1       560 1.35213E+02 2.17703E+01 1.78011E+01
 -1       561 1.35569E+02 2.17703E+01 1.48472E+01
 -1       562 1.36452E+02 2.27397E+01 1.79643E+01
 -1       563 1.37692E+02 2.37091E+01 1.81274E+01
 -1       564 1.38054E+02 2.37091E+01 1.51194E+01
 -1       565 1.36452E+02 2.40263E+01 1.79643E+01
 -1       566 1.35213E+02 2.69170E+01 1.78011E+01
 -1       567 1.35569E+02 2.69170E+01 1.48472E+01
 -1       568 1.35213E+02 2.56303E+01 1.78011E+01
 -1       569 1.37685E+02 2.51868E+01 1.81266E+01
 -1       570 1.37679E+02 2.66646E+01 1.81258E+01
 -1       571 1.38042E+02 2.66646E+01 1.51180E+01
 -1       572 1.36446E+02 2.67908E+01 1.79635E+01
 -1       573 1.38931E+02 2.46784E+01 1.82906E+01
 -1       574 1.40170E+02 2.56478E+01 1.84538E+01
 -1       575 1.40539E+02 2.56478E+01 1.53916E+01
 -1       576 1.38925E+02 2.61562E+01 1.82898E+01
 -1       577 1.37707E+02 2.80784E+01 1.81294E+01
 -1       578 1.37734E+02 2.94922E+01 1.81330E+01
 -1       579 1.38097E+02 2.94922E+01 1.51241E+01
 -1       580 1.36474E+02 2.94912E+01 1.79671E+01
 -1       581 1.35213E+02 2.82036E+01 1.78011E+01
 -1       582 1.40170E+02 2.75691E+01 1.84538E+01