
                        S T E P       1


                                INCREMENT     1


 displacements (vx,vy,vz) for set INTERFACE and time  0.1000000E+01

         1  1.153188E+00  2.505434E-01 -8.316757E-09
         2  1.156199E+00  2.417396E-01 -7.813156E-09
         3  1.158715E+00  2.327818E-01 -7.305826E-09
         4  1.160733E+00  2.236633E-01 -6.795392E-09
         5  1.162275E+00  2.144064E-01 -6.282685E-09
         6  1.163351E+00  2.050192E-01 -5.768354E-09
         7  1.163952E+00  1.954849E-01 -5.252997E-09
         8  1.164094E+00  1.857857E-01 -4.737301E-09
         9  1.163773E+00  1.759561E-01 -4.221850E-09
        10  1.162964E+00  1.660166E-01 -3.707162E-09
        11  1.161681E+00  1.559442E-01 -3.193909E-09
        46  1.176728E+00  8.598843E-02 -5.490529E-10
        47  1.186622E+00  9.215069E-02 -8.367896E-10
        48  1.197182E+00  9.806003E-02 -1.124735E-09
        49  1.208364E+00  1.037305E-01 -1.413300E-09
        50  1.220200E+00  1.091931E-01 -1.702978E-09
        64  1.233645E+00  2.916144E-01 -9.135278E-09
        65  1.222270E+00  2.958711E-01 -9.388429E-09
        66  1.211170E+00  2.998987E-01 -9.643532E-09
        67  1.200397E+00  3.036714E-01 -9.901198E-09
        68  1.189895E+00  3.072177E-01 -1.016127E-08
       106  1.255072E+00  1.298848E-01 -2.898446E-09
       107  1.261508E+00  1.425336E-01 -3.390995E-09
       108  1.267500E+00  1.554461E-01 -3.884708E-09
       109  1.273040E+00  1.685922E-01 -4.379049E-09
       110  1.278156E+00  1.819702E-01 -4.873616E-09
       111  1.282850E+00  1.956242E-01 -5.367914E-09
       112  1.287102E+00  2.095469E-01 -5.861369E-09
       113  1.290924E+00  2.237212E-01 -6.353565E-09
       114  1.294307E+00  2.381598E-01 -6.843959E-09
       115  1.297234E+00  2.528783E-01 -7.331976E-09
       116  1.299710E+00  2.678701E-01 -7.817163E-09
       135  1.160576E+00  1.559442E-01  5.067183E-02
       136  1.161405E+00  1.559442E-01  2.534194E-02
       144  1.162665E+00  1.759561E-01  5.076306E-02
       145  1.163496E+00  1.759561E-01  2.538757E-02
       146  1.161857E+00  1.660166E-01  5.072776E-02
       155  1.162844E+00  1.954849E-01  5.077085E-02
       156  1.163675E+00  1.954849E-01  2.539146E-02
       157  1.162986E+00  1.857857E-01  5.077705E-02
       166  1.161169E+00  2.144064E-01  5.069773E-02
       167  1.161999E+00  2.144064E-01  2.535490E-02
       168  1.162243E+00  2.050192E-01  5.074464E-02
       177  1.157612E+00  2.327818E-01  5.054243E-02
       178  1.158439E+00  2.327818E-01  2.527723E-02
       179  1.159628E+00  2.236633E-01  5.063045E-02
       188  1.152091E+00  2.505434E-01  5.030135E-02
       189  1.152914E+00  2.505434E-01  2.515666E-02
       190  1.155098E+00  2.417396E-01  5.043268E-02
       194  1.175608E+00  8.598843E-02  5.132817E-02
       195  1.176448E+00  8.598843E-02  2.567019E-02
       196  1.185493E+00  9.215069E-02  5.175973E-02
       197  1.196043E+00  9.806003E-02  5.222034E-02
       198  1.196897E+00  9.806003E-02  2.611639E-02
       207  1.207214E+00  1.037305E-01  5.270810E-02
       208  1.219039E+00  1.091931E-01  5.322437E-02
       209  1.219910E+00  1.091931E-01  2.661852E-02
       267  1.232471E+00  2.916144E-01  5.381085E-02
       268  1.233352E+00  2.916144E-01  2.691183E-02
       271  1.188762E+00  3.072177E-01  5.190247E-02
       272  1.189612E+00  3.072177E-01  2.595741E-02
       275  1.210017E+00  2.998987E-01  5.283049E-02
       276  1.210882E+00  2.998987E-01  2.642153E-02
       277  1.199254E+00  3.036714E-01  5.236056E-02
       278  1.221106E+00  2.958711E-01  5.331465E-02
       287  1.293075E+00  2.381598E-01  5.645687E-02
       288  1.293999E+00  2.381598E-01  2.823515E-02
       289  1.295999E+00  2.528783E-01  5.658453E-02
       290  1.298473E+00  2.678701E-01  5.669256E-02
       291  1.299401E+00  2.678701E-01  2.835302E-02
       298  1.285877E+00  2.095469E-01  5.614260E-02
       299  1.286796E+00  2.095469E-01  2.807798E-02
       300  1.289695E+00  2.237212E-01  5.630930E-02
       306  1.276940E+00  1.819702E-01  5.575239E-02
       307  1.277852E+00  1.819702E-01  2.788283E-02
       308  1.281629E+00  1.956242E-01  5.595710E-02
       309  1.266294E+00  1.554461E-01  5.528758E-02
       310  1.267199E+00  1.554461E-01  2.765037E-02
       313  1.271828E+00  1.685922E-01  5.552920E-02
       315  1.253877E+00  1.298848E-01  5.474546E-02
       316  1.254773E+00  1.298848E-01  2.737924E-02
       317  1.260308E+00  1.425336E-01  5.502622E-02
       318  1.157261E+00  1.559442E-01  1.012472E-01
       319  1.159194E+00  1.559442E-01  7.597759E-02
       327  1.159344E+00  1.759561E-01  1.014295E-01
       328  1.161281E+00  1.759561E-01  7.611439E-02
       329  1.158538E+00  1.660166E-01  1.013590E-01
       338  1.159522E+00  1.954849E-01  1.014451E-01
       339  1.161459E+00  1.954849E-01  7.612607E-02
       340  1.159664E+00  1.857857E-01  1.014575E-01
       349  1.157853E+00  2.144064E-01  1.012990E-01
       350  1.159787E+00  2.144064E-01  7.601644E-02
       351  1.158924E+00  2.050192E-01  1.013927E-01
       360  1.154306E+00  2.327818E-01  1.009887E-01
       361  1.156234E+00  2.327818E-01  7.578359E-02
       362  1.156316E+00  2.236633E-01  1.011645E-01
       371  1.148800E+00  2.505434E-01  1.005070E-01
       372  1.150719E+00  2.505434E-01  7.542211E-02
       373  1.151799E+00  2.417396E-01  1.007694E-01
       377  1.172251E+00  8.598843E-02  1.025586E-01
       378  1.174209E+00  8.598843E-02  7.696172E-02
       379  1.182107E+00  9.215069E-02  1.034209E-01
       380  1.192626E+00  9.806003E-02  1.043413E-01
       381  1.194619E+00  9.806003E-02  7.829945E-02
       390  1.203766E+00  1.037305E-01  1.053159E-01
       391  1.215557E+00  1.091931E-01  1.063474E-01
       392  1.217587E+00  1.091931E-01  7.980489E-02
       450  1.228951E+00  2.916144E-01  1.075193E-01
       451  1.231004E+00  2.916144E-01  8.068427E-02
       454  1.185367E+00  3.072177E-01  1.037061E-01
       455  1.187347E+00  3.072177E-01  7.782283E-02
       458  1.206561E+00  2.998987E-01  1.055604E-01
       459  1.208577E+00  2.998987E-01  7.921430E-02
       460  1.195829E+00  3.036714E-01  1.046215E-01
       461  1.217619E+00  2.958711E-01  1.065278E-01
       470  1.289382E+00  2.381598E-01  1.128063E-01
       471  1.291536E+00  2.381598E-01  8.465171E-02
       472  1.292297E+00  2.528783E-01  1.130614E-01
       473  1.294765E+00  2.678701E-01  1.132772E-01
       474  1.296928E+00  2.678701E-01  8.500512E-02
       481  1.282204E+00  2.095469E-01  1.121783E-01
       482  1.284346E+00  2.095469E-01  8.418050E-02
       483  1.286011E+00  2.237212E-01  1.125114E-01
       489  1.273293E+00  1.819702E-01  1.113987E-01
       490  1.275420E+00  1.819702E-01  8.359542E-02
       491  1.277968E+00  1.956242E-01  1.118077E-01
       492  1.262677E+00  1.554461E-01  1.104699E-01
       493  1.264786E+00  1.554461E-01  8.289848E-02
       496  1.268195E+00  1.685922E-01  1.109527E-01
       498  1.250296E+00  1.298848E-01  1.093867E-01
       499  1.252385E+00  1.298848E-01  8.208562E-02
       500  1.256708E+00  1.425336E-01  1.099477E-01
       501  1.151743E+00  1.559442E-01  1.516298E-01
       502  1.154777E+00  1.559442E-01  1.264686E-01
       510  1.153817E+00  1.759561E-01  1.519028E-01
       511  1.156856E+00  1.759561E-01  1.266963E-01
       512  1.153014E+00  1.660166E-01  1.517972E-01
       521  1.153994E+00  1.954849E-01  1.519262E-01
       522  1.157033E+00  1.954849E-01  1.267158E-01
       523  1.154135E+00  1.857857E-01  1.519447E-01
       532  1.152332E+00  2.144064E-01  1.517074E-01
       533  1.155367E+00  2.144064E-01  1.265333E-01
       534  1.153398E+00  2.050192E-01  1.518477E-01
       543  1.148802E+00  2.327818E-01  1.512427E-01
       544  1.151828E+00  2.327818E-01  1.261457E-01
       545  1.150803E+00  2.236633E-01  1.515060E-01
       554  1.143322E+00  2.505434E-01  1.505212E-01
       555  1.146334E+00  2.505434E-01  1.255440E-01
       556  1.146307E+00  2.417396E-01  1.509142E-01
       560  1.166661E+00  8.598843E-02  1.535939E-01
       561  1.169734E+00  8.598843E-02  1.281067E-01
       562  1.176470E+00  9.215069E-02  1.548853E-01
       563  1.186940E+00  9.806003E-02  1.562636E-01
       564  1.190066E+00  9.806003E-02  1.303335E-01
       573  1.198026E+00  1.037305E-01  1.577232E-01
       574  1.209761E+00  1.091931E-01  1.592681E-01
       575  1.212948E+00  1.091931E-01  1.328394E-01
       633  1.223091E+00  2.916144E-01  1.610230E-01
       634  1.226313E+00  2.916144E-01  1.343031E-01
       637  1.179715E+00  3.072177E-01  1.553124E-01
       638  1.182822E+00  3.072177E-01  1.295401E-01
       641  1.200808E+00  2.998987E-01  1.580894E-01
       642  1.203971E+00  2.998987E-01  1.318563E-01
       643  1.190127E+00  3.036714E-01  1.566832E-01
       644  1.211813E+00  2.958711E-01  1.595382E-01
       653  1.283234E+00  2.381598E-01  1.689409E-01
       654  1.286614E+00  2.381598E-01  1.409071E-01
       655  1.286136E+00  2.528783E-01  1.693230E-01
       656  1.288591E+00  2.678701E-01  1.696462E-01
       657  1.291985E+00  2.678701E-01  1.414954E-01
       664  1.276091E+00  2.095469E-01  1.680005E-01
       665  1.279452E+00  2.095469E-01  1.401228E-01
       666  1.279880E+00  2.237212E-01  1.684994E-01
       672  1.267222E+00  1.819702E-01  1.668329E-01
       673  1.270559E+00  1.819702E-01  1.391489E-01
       674  1.271875E+00  1.956242E-01  1.674455E-01
       675  1.256657E+00  1.554461E-01  1.654420E-01
       676  1.259967E+00  1.554461E-01  1.379888E-01
       679  1.262149E+00  1.685922E-01  1.661650E-01
       681  1.244334E+00  1.298848E-01  1.638197E-01
       682  1.247612E+00  1.298848E-01  1.366357E-01
       683  1.250716E+00  1.425336E-01  1.646599E-01
       684  1.144033E+00  1.559442E-01  2.017238E-01
       685  1.148161E+00  1.559442E-01  1.767189E-01
       693  1.146093E+00  1.759561E-01  2.020870E-01
       694  1.150228E+00  1.759561E-01  1.770371E-01
       695  1.145296E+00  1.660166E-01  2.019465E-01
       704  1.146268E+00  1.954849E-01  2.021181E-01
       705  1.150405E+00  1.954849E-01  1.770642E-01
       706  1.146409E+00  1.857857E-01  2.021428E-01
       715  1.144618E+00  2.144064E-01  2.018270E-01
       716  1.148748E+00  2.144064E-01  1.768093E-01
       717  1.145677E+00  2.050192E-01  2.020137E-01
       726  1.141112E+00  2.327818E-01  2.012088E-01
       727  1.145229E+00  2.327818E-01  1.762677E-01
       728  1.143099E+00  2.236633E-01  2.015591E-01
       737  1.135669E+00  2.505434E-01  2.002490E-01
       738  1.139767E+00  2.505434E-01  1.754269E-01
       739  1.138634E+00  2.417396E-01  2.007718E-01
       743  1.158851E+00  8.598843E-02  2.043367E-01
       744  1.163033E+00  8.598843E-02  1.790079E-01
       745  1.168595E+00  9.215069E-02  2.060548E-01
       746  1.178994E+00  9.806003E-02  2.078885E-01
       747  1.183249E+00  9.806003E-02  1.821194E-01
       756  1.190006E+00  1.037305E-01  2.098302E-01
       757  1.201662E+00  1.091931E-01  2.118855E-01
       758  1.205999E+00  1.091931E-01  1.856209E-01
       816  1.214904E+00  2.916144E-01  2.142203E-01
       817  1.219288E+00  2.916144E-01  1.876663E-01
       820  1.171818E+00  3.072177E-01  2.066230E-01
       821  1.176046E+00  3.072177E-01  1.810108E-01
       824  1.192770E+00  2.998987E-01  2.103175E-01
       825  1.197074E+00  2.998987E-01  1.842473E-01
       826  1.182160E+00  3.036714E-01  2.084467E-01
       827  1.203701E+00  2.958711E-01  2.122449E-01
       836  1.274643E+00  2.381598E-01  2.247540E-01
       837  1.279243E+00  2.381598E-01  1.968943E-01
       838  1.277526E+00  2.528783E-01  2.252623E-01
       839  1.279965E+00  2.678701E-01  2.256923E-01
       840  1.284584E+00  2.678701E-01  1.977163E-01
       847  1.267548E+00  2.095469E-01  2.235029E-01
       848  1.272122E+00  2.095469E-01  1.957983E-01
       849  1.271312E+00  2.237212E-01  2.241666E-01
       855  1.258738E+00  1.819702E-01  2.219495E-01
       856  1.263281E+00  1.819702E-01  1.944375E-01
       857  1.263360E+00  1.956242E-01  2.227645E-01
       858  1.248244E+00  1.554461E-01  2.200991E-01
       859  1.252749E+00  1.554461E-01  1.928164E-01
       862  1.253699E+00  1.685922E-01  2.210610E-01
       864  1.236004E+00  1.298848E-01  2.179409E-01
       865  1.240465E+00  1.298848E-01  1.909258E-01
       866  1.242343E+00  1.425336E-01  2.190586E-01

 temperatures for set NALL and time  0.1000000E+01

         1  5.611200E+02
         2  5.621839E+02
         3  5.632439E+02
         4  5.643001E+02
         5  5.653524E+02
         6  5.664009E+02
         7  5.674477E+02
         8  5.684912E+02
         9  5.695309E+02
        10  5.705665E+02
        11  5.715982E+02
        12  5.836080E+02
        13  5.956084E+02
        14  5.962804E+02
        15  5.969524E+02
        16  5.976244E+02
        17  5.982965E+02
        18  5.989685E+02
        19  5.996405E+02
        20  6.003125E+02
        21  6.009845E+02
        22  6.016565E+02
        23  6.023285E+02
        24  5.920322E+02
        25  5.817292E+02
        26  5.714194E+02
        27  5.902712E+02
        28  5.822417E+02
        29  5.748464E+02
        30  5.832477E+02
        31  5.758809E+02
        32  5.910714E+02
        33  5.824973E+02
        34  5.739251E+02
        35  5.823701E+02
        36  5.915518E+02
        37  5.821130E+02
        38  5.726760E+02
        39  5.823061E+02
        40  5.819220E+02
        41  5.950306E+02
        42  5.944542E+02
        43  5.938808E+02
        44  5.933072E+02
        45  5.927290E+02
        46  5.921508E+02
        47  6.005235E+02
        48  6.089050E+02
        49  6.172969E+02
        50  6.257042E+02
        51  6.266147E+02
        52  6.275184E+02
        53  6.282264E+02
        54  6.289344E+02
        55  6.296424E+02
        56  6.303504E+02
        57  6.310585E+02
        58  6.317665E+02
        59  6.324745E+02
        60  6.331825E+02
        61  6.338905E+02
        62  6.345985E+02
        63  6.354601E+02
        64  6.363237E+02
        65  6.285586E+02
        66  6.207887E+02
        67  6.130080E+02
        68  6.052189E+02
        69  6.044990E+02
        70  6.037776E+02
        71  6.030546E+02
        72  6.011083E+02
        73  6.095469E+02
        74  6.023187E+02
        75  6.101833E+02
        76  6.179461E+02
        77  6.110111E+02
        78  6.037258E+02
        79  6.118429E+02
        80  6.196789E+02
        81  6.123930E+02
        82  6.049477E+02
        83  6.129428E+02
        84  6.209368E+02
        85  6.136339E+02
        86  6.063107E+02
        87  6.143249E+02
        88  6.223359E+02
        89  6.150158E+02
        90  6.076736E+02
        91  6.157068E+02
        92  6.237348E+02
        93  6.163964E+02
        94  6.090352E+02
        95  6.170860E+02
        96  6.251324E+02
        97  6.178154E+02
        98  6.104369E+02
        99  6.185448E+02
       100  6.188917E+02
       101  6.265698E+02
       102  6.115091E+02
       103  6.192390E+02
       104  6.200132E+02
       105  6.277763E+02
       106  6.483979E+02
       107  6.513924E+02
       108  6.543923E+02
       109  6.573976E+02
       110  6.604084E+02
       111  6.634242E+02
       112  6.664425E+02
       113  6.694660E+02
       114  6.724946E+02
       115  6.755282E+02
       116  6.785670E+02
       117  6.675774E+02
       118  6.565774E+02
       119  6.455841E+02
       120  6.379547E+02
       121  6.404833E+02
       122  6.492056E+02
       123  6.578238E+02
       124  6.430504E+02
       125  6.529250E+02
       126  6.627125E+02
       127  6.547499E+02
       128  6.510640E+02
       129  6.381864E+02
       130  6.460266E+02
       131  6.532159E+02
       132  6.476151E+02
       133  6.416582E+02
       134  6.502143E+02
       135  5.715982E+02
       136  5.715982E+02
       137  5.836080E+02
       138  5.956084E+02
       139  5.956084E+02
       140  5.962804E+02
       141  5.969524E+02
       142  5.969524E+02
       143  5.832477E+02
       144  5.695309E+02
       145  5.695309E+02
       146  5.705665E+02
       147  5.982965E+02
       148  5.982965E+02
       149  5.902712E+02
       150  5.822417E+02
       151  5.822417E+02
       152  5.758809E+02
       153  5.976244E+02
       154  5.748464E+02
       155  5.674477E+02
       156  5.674477E+02
       157  5.684912E+02
       158  5.996405E+02
       159  5.996405E+02
       160  5.910714E+02
       161  5.824973E+02
       162  5.824973E+02
       163  5.823701E+02
       164  5.989685E+02
       165  5.739251E+02
       166  5.653524E+02
       167  5.653524E+02
       168  5.664009E+02
       169  6.009845E+02
       170  6.009845E+02
       171  5.915518E+02
       172  5.821130E+02
       173  5.821130E+02
       174  5.823061E+02
       175  6.003125E+02
       176  5.726760E+02
       177  5.632439E+02
       178  5.632439E+02
       179  5.643001E+02
       180  6.023285E+02
       181  6.023285E+02
       182  5.920322E+02
       183  5.817292E+02
       184  5.817292E+02
       185  5.819220E+02
       186  6.016565E+02
       187  5.714194E+02
       188  5.611200E+02
       189  5.611200E+02
       190  5.621839E+02
       191  5.933072E+02
       192  5.933072E+02
       193  5.927290E+02
       194  5.921508E+02
       195  5.921508E+02
       196  6.005235E+02
       197  6.089050E+02
       198  6.089050E+02
       199  6.011083E+02
       200  5.944542E+02
       201  5.944542E+02
       202  5.938808E+02
       203  6.095469E+02
       204  6.101833E+02
       205  6.101833E+02
       206  6.023187E+02
       207  6.172969E+02
       208  6.257042E+02
       209  6.257042E+02
       210  6.179461E+02
       211  6.110111E+02
       212  6.118429E+02
       213  6.118429E+02
       214  6.037258E+02
       215  5.950306E+02
       216  6.266147E+02
       217  6.275184E+02
       218  6.275184E+02
       219  6.196789E+02
       220  6.123930E+02
       221  6.129428E+02
       222  6.129428E+02
       223  6.049477E+02
       224  6.282264E+02
       225  6.289344E+02
       226  6.289344E+02
       227  6.209368E+02
       228  6.136339E+02
       229  6.143249E+02
       230  6.143249E+02
       231  6.063107E+02
       232  6.296424E+02
       233  6.303504E+02
       234  6.303504E+02
       235  6.223359E+02
       236  6.150158E+02
       237  6.157068E+02
       238  6.157068E+02
       239  6.076736E+02
       240  6.310585E+02
       241  6.317665E+02
       242  6.317665E+02
       243  6.237348E+02
       244  6.163964E+02
       245  6.170860E+02
       246  6.170860E+02
       247  6.090352E+02
       248  6.324745E+02
       249  6.331825E+02
       250  6.331825E+02
       251  6.251324E+02
       252  6.178154E+02
       253  6.185448E+02
       254  6.185448E+02
       255  6.104369E+02
       256  6.338905E+02
       257  6.345985E+02
       258  6.345985E+02
       259  6.265698E+02
       260  6.037776E+02
       261  6.037776E+02
       262  6.030546E+02
       263  6.188917E+02
       264  6.192390E+02
       265  6.192390E+02
       266  6.115091E+02
       267  6.363237E+02
       268  6.363237E+02
       269  6.277763E+02
       270  6.354601E+02
       271  6.052189E+02
       272  6.052189E+02
       273  6.044990E+02
       274  6.200132E+02
       275  6.207887E+02
       276  6.207887E+02
       277  6.130080E+02
       278  6.285586E+02
       279  6.430504E+02
       280  6.529250E+02
       281  6.529250E+02
       282  6.547499E+02
       283  6.565774E+02
       284  6.565774E+02
       285  6.455841E+02
       286  6.627125E+02
       287  6.724946E+02
       288  6.724946E+02
       289  6.755282E+02
       290  6.785670E+02
       291  6.785670E+02
       292  6.675774E+02
       293  6.404833E+02
       294  6.492056E+02
       295  6.492056E+02
       296  6.510640E+02
       297  6.578238E+02
       298  6.664425E+02
       299  6.664425E+02
       300  6.694660E+02
       301  6.381864E+02
       302  6.460266E+02
       303  6.460266E+02
       304  6.476151E+02
       305  6.532159E+02
       306  6.604084E+02
       307  6.604084E+02
       308  6.634242E+02
       309  6.543923E+02
       310  6.543923E+02
       311  6.502143E+02
       312  6.416582E+02
       313  6.573976E+02
       314  6.379547E+02
       315  6.483979E+02
       316  6.483979E+02
       317  6.513924E+02
       318  5.715982E+02
       319  5.715982E+02
       320  5.836080E+02
       321  5.956084E+02
       322  5.956084E+02
       323  5.962804E+02
       324  5.969524E+02
       325  5.969524E+02
       326  5.832477E+02
       327  5.695309E+02
       328  5.695309E+02
       329  5.705665E+02
       330  5.982965E+02
       331  5.982965E+02
       332  5.902712E+02
       333  5.822417E+02
       334  5.822417E+02
       335  5.758809E+02
       336  5.976244E+02
       337  5.748464E+02
       338  5.674477E+02
       339  5.674477E+02
       340  5.684912E+02
       341  5.996405E+02
       342  5.996405E+02
       343  5.910714E+02
       344  5.824973E+02
       345  5.824973E+02
       346  5.823701E+02
       347  5.989685E+02
       348  5.739251E+02
       349  5.653524E+02
       350  5.653524E+02
       351  5.664009E+02
       352  6.009845E+02
       353  6.009845E+02
       354  5.915518E+02
       355  5.821130E+02
       356  5.821130E+02
       357  5.823061E+02
       358  6.003125E+02
       359  5.726760E+02
       360  5.632439E+02
       361  5.632439E+02
       362  5.643001E+02
       363  6.023285E+02
       364  6.023285E+02
       365  5.920322E+02
       366  5.817292E+02
       367  5.817292E+02
       368  5.819220E+02
       369  6.016565E+02
       370  5.714194E+02
       371  5.611200E+02
       372  5.611200E+02
       373  5.621839E+02
       374  5.933072E+02
       375  5.933072E+02
       376  5.927290E+02
       377  5.921508E+02
       378  5.921508E+02
       379  6.005235E+02
       380  6.089050E+02
       381  6.089050E+02
       382  6.011083E+02
       383  5.944542E+02
       384  5.944542E+02
       385  5.938808E+02
       386  6.095469E+02
       387  6.101833E+02
       388  6.101833E+02
       389  6.023187E+02
       390  6.172969E+02
       391  6.257042E+02
       392  6.257042E+02
       393  6.179461E+02
       394  6.110111E+02
       395  6.118429E+02
       396  6.118429E+02
       397  6.037258E+02
       398  5.950306E+02
       399  6.266147E+02
       400  6.275184E+02
       401  6.275184E+02
       402  6.196789E+02
       403  6.123930E+02
       404  6.129428E+02
       405  6.129428E+02
       406  6.049477E+02
       407  6.282264E+02
       408  6.289344E+02
       409  6.289344E+02
       410  6.209368E+02
       411  6.136339E+02
       412  6.143249E+02
       413  6.143249E+02
       414  6.063107E+02
       415  6.296424E+02
       416  6.303504E+02
       417  6.303504E+02
       418  6.223359E+02
       419  6.150158E+02
       420  6.157068E+02
       421  6.157068E+02
       422  6.076736E+02
       423  6.310585E+02
       424  6.317665E+02
       425  6.317665E+02
       426  6.237348E+02
       427  6.163964E+02
       428  6.170860E+02
       429  6.170860E+02
       430  6.090352E+02
       431  6.324745E+02
       432  6.331825E+02
       433  6.331825E+02
       434  6.251324E+02
       435  6.178154E+02
       436  6.185448E+02
       437  6.185448E+02
       438  6.104369E+02
       439  6.338905E+02
       440  6.345985E+02
       441  6.345985E+02
       442  6.265698E+02
       443  6.037776E+02
       444  6.037776E+02
       445  6.030546E+02
       446  6.188917E+02
       447  6.192390E+02
       448  6.192390E+02
       449  6.115091E+02
       450  6.363237E+02
       451  6.363237E+02
       452  6.277763E+02
       453  6.354601E+02
       454  6.052189E+02
       455  6.052189E+02
       456  6.044990E+02
       457  6.200132E+02
       458  6.207887E+02
       459  6.207887E+02
       460  6.130080E+02
       461  6.285586E+02
       462  6.430504E+02
       463  6.529250E+02
       464  6.529250E+02
       465  6.547499E+02
       466  6.565774E+02
       467  6.565774E+02
       468  6.455841E+02
       469  6.627125E+02
       470  6.724946E+02
       471  6.724946E+02
       472  6.755282E+02
       473  6.785670E+02
       474  6.785670E+02
       475  6.675774E+02
       476  6.404833E+02
       477  6.492056E+02
       478  6.492056E+02
       479  6.510640E+02
       480  6.578238E+02
       481  6.664425E+02
       482  6.664425E+02
       483  6.694660E+02
       484  6.381864E+02
       485  6.460266E+02
       486  6.460266E+02
       487  6.476151E+02
       488  6.532159E+02
       489  6.604084E+02
       490  6.604084E+02
       491  6.634242E+02
       492  6.543923E+02
       493  6.543923E+02
       494  6.502143E+02
       495  6.416582E+02
       496  6.573976E+02
       497  6.379547E+02
       498  6.483979E+02
       499  6.483979E+02
       500  6.513924E+02
       501  5.715982E+02
       502  5.715982E+02
       503  5.836080E+02
       504  5.956084E+02
       505  5.956084E+02
       506  5.962804E+02
       507  5.969524E+02
       508  5.969524E+02
       509  5.832477E+02
       510  5.695309E+02
       511  5.695309E+02
       512  5.705665E+02
       513  5.982965E+02
       514  5.982965E+02
       515  5.902712E+02
       516  5.822417E+02
       517  5.822417E+02
       518  5.758809E+02
       519  5.976244E+02
       520  5.748464E+02
       521  5.674477E+02
       522  5.674477E+02
       523  5.684912E+02
       524  5.996405E+02
       525  5.996405E+02
       526  5.910714E+02
       527  5.824973E+02
       528  5.824973E+02
       529  5.823701E+02
       530  5.989685E+02
       531  5.739251E+02
       532  5.653525E+02
       533  5.653525E+02
       534  5.664009E+02
       535  6.009845E+02
       536  6.009845E+02
       537  5.915518E+02
       538  5.821130E+02
       539  5.821130E+02
       540  5.823061E+02
       541  6.003125E+02
       542  5.726760E+02
       543  5.632439E+02
       544  5.632439E+02
       545  5.643001E+02
       546  6.023285E+02
       547  6.023285E+02
       548  5.920322E+02
       549  5.817292E+02
       550  5.817292E+02
       551  5.819220E+02
       552  6.016565E+02
       553  5.714194E+02
       554  5.611200E+02
       555  5.611200E+02
       556  5.621839E+02
       557  5.933072E+02
       558  5.933072E+02
       559  5.927290E+02
       560  5.921508E+02
       561  5.921508E+02
       562  6.005235E+02
       563  6.089050E+02
       564  6.089050E+02
       565  6.011083E+02
       566  5.944542E+02
       567  5.944542E+02
       568  5.938808E+02
       569  6.095469E+02
       570  6.101833E+02
       571  6.101833E+02
       572  6.023187E+02
       573  6.172969E+02
       574  6.257042E+02
       575  6.257042E+02
       576  6.179461E+02
       577  6.110111E+02
       578  6.118429E+02
       579  6.118429E+02
       580  6.037258E+02
       581  5.950306E+02
       582  6.266147E+02
       583  6.275184E+02
       584  6.275184E+02
       585  6.196789E+02
       586  6.123930E+02
       587  6.129428E+02
       588  6.129428E+02
       589  6.049477E+02
       590  6.282264E+02
       591  6.289344E+02
       592  6.289344E+02
       593  6.209368E+02
       594  6.136339E+02
       595  6.143249E+02
       596  6.143249E+02
       597  6.063107E+02
       598  6.296424E+02
       599  6.303504E+02
       600  6.303504E+02
       601  6.223359E+02
       602  6.150158E+02
       603  6.157068E+02
       604  6.157068E+02
       605  6.076736E+02
       606  6.310585E+02
       607  6.317665E+02
       608  6.317665E+02
       609  6.237348E+02
       610  6.163964E+02
       611  6.170860E+02
       612  6.170860E+02
       613  6.090352E+02
       614  6.324745E+02
       615  6.331825E+02
       616  6.331825E+02
       617  6.251324E+02
       618  6.178154E+02
       619  6.185448E+02
       620  6.185448E+02
       621  6.104369E+02
       622  6.338905E+02
       623  6.345985E+02
       624  6.345985E+02
       625  6.265698E+02
       626  6.037776E+02
       627  6.037776E+02
       628  6.030546E+02
       629  6.188917E+02
       630  6.192390E+02
       631  6.192390E+02
       632  6.115091E+02
       633  6.363237E+02
       634  6.363237E+02
       635  6.277763E+02
       636  6.354601E+02
       637  6.052189E+02
       638  6.052189E+02
       639  6.044990E+02
       640  6.200132E+02
       641  6.207887E+02
       642  6.207887E+02
       643  6.130080E+02
       644  6.285586E+02
       645  6.430504E+02
       646  6.529250E+02
       647  6.529250E+02
       648  6.547499E+02
       649  6.565774E+02
       650  6.565774E+02
       651  6.455841E+02
       652  6.627125E+02
       653  6.724946E+02
       654  6.724946E+02
       655  6.755282E+02
       656  6.785670E+02
       657  6.785670E+02
       658  6.675774E+02
       659  6.404833E+02
       660  6.492056E+02
       661  6.492056E+02
       662  6.510640E+02
       663  6.578238E+02
       664  6.664425E+02
       665  6.664425E+02
       666  6.694660E+02
       667  6.381864E+02
       668  6.460266E+02
       669  6.460266E+02
       670  6.476151E+02
       671  6.532159E+02
       672  6.604084E+02
       673  6.604084E+02
       674  6.634242E+02
       675  6.543923E+02
       676  6.543923E+02
       677  6.502143E+02
       678  6.416582E+02
       679  6.573976E+02
       680  6.379547E+02
       681  6.483979E+02
       682  6.483979E+02
       683  6.513924E+02
       684  5.715982E+02
       685  5.715982E+02
       686  5.836080E+02
       687  5.956084E+02
       688  5.956084E+02
       689  5.962804E+02
       690  5.969524E+02
       691  5.969524E+02
       692  5.832477E+02
       693  5.695309E+02
       694  5.695309E+02
       695  5.705665E+02
       696  5.982965E+02
       697  5.982965E+02
       698  5.902712E+02
       699  5.822417E+02