    1C
    1UUSER                                                              
    1UDATE              02.december.2024                                
    1UTIME              10:25:51                                        
    1UHOST                                                              
    1UPGM               CalculiX                                        
    1UVERSION           Version DEVELOPMENT                             
    1UCOMPILETIME       Mon Dec  2 10:05:46 CET 2024                    
    1UDIR                                                               
    1UDBN                                                               
    1UMAT    1EL                                                        
    2C                            40                                     1
 -1        38 1.00000E+00 0.00000E+00 3.00000E+00
 -1        39 1.00000E+00 0.00000E+00 3.50000E+00
 -1        40 1.00000E+00 0.00000E+00 4.00000E+00
 -1       113 5.00000E-01 0.00000E+00 3.00000E+00
 -1       114 7.50000E-01 0.00000E+00 3.00000E+00
 -1       115 5.00000E-01 0.00000E+00 3.50000E+00
 -1       117 5.00000E-01 0.00000E+00 4.00000E+00
 -1       118 7.50000E-01 0.00000E+00 4.00000E+00
 -1       141 1.00000E+00 2.50000E-01 3.00000E+00
 -1       142 1.00000E+00 5.00000E-01 3.00000E+00
 -1       144 1.00000E+00 5.00000E-01 3.50000E+00
 -1       145 1.00000E+00 2.50000E-01 4.00000E+00
 -1       146 1.00000E+00 5.00000E-01 4.00000E+00
 -1       232 5.00000E-01 2.50000E-01 3.00000E+00
 -1       234 5.00000E-01 5.00000E-01 3.00000E+00
 -1       235 7.50000E-01 5.00000E-01 3.00000E+00
 -1       237 5.00000E-01 5.00000E-01 3.50000E+00
 -1       238 5.00000E-01 2.50000E-01 4.00000E+00
 -1       240 5.00000E-01 5.00000E-01 4.00000E+00
 -1       241 7.50000E-01 5.00000E-01 4.00000E+00
 -1       259 1.00000E+00 0.00000E+00 4.00000E+00
 -1       260 1.00000E+00 0.00000E+00 4.50000E+00
 -1       261 1.00000E+00 0.00000E+00 5.00000E+00
 -1       297 5.00000E-01 0.00000E+00 4.00000E+00
 -1       298 7.50000E-01 0.00000E+00 4.00000E+00
 -1       299 5.00000E-01 0.00000E+00 4.50000E+00
 -1       301 5.00000E-01 0.00000E+00 5.00000E+00
 -1       302 7.50000E-01 0.00000E+00 5.00000E+00
 -1       312 1.00000E+00 2.50000E-01 4.00000E+00
 -1       313 1.00000E+00 5.00000E-01 4.00000E+00
 -1       315 1.00000E+00 5.00000E-01 4.50000E+00
 -1       316 1.00000E+00 2.50000E-01 5.00000E+00
 -1       317 1.00000E+00 5.00000E-01 5.00000E+00
 -1       360 5.00000E-01 2.50000E-01 4.00000E+00
 -1       362 5.00000E-01 5.00000E-01 4.00000E+00
 -1       363 7.50000E-01 5.00000E-01 4.00000E+00
 -1       365 5.00000E-01 5.00000E-01 4.50000E+00
 -1       366 5.00000E-01 2.50000E-01 5.00000E+00
 -1       368 5.00000E-01 5.00000E-01 5.00000E+00
 -1       369 7.50000E-01 5.00000E-01 5.00000E+00
 -3
    3C                             2                                     1
 -1        14    4    0    1
 -2       113        38       142       234       117        40       146       240       114       141
 -2       235       232       115        39       144       237       118       145       241       238
 -1        18    4    0    1
 -2       297       259       313       362       301       261       317       368       298       312
 -2       363       360       299       260       315       365       302       316       369       366
 -3
    1PSTEP                         1           1           1          
  100CL  101 1.000000000          40                     0    1           1
 -4  NDTEMP      1    1
 -5  T           1    1    0    0
 -1        38 4.00000E+02
 -1        39 4.38820E+02
 -1        40 4.48474E+02
 -1       113 4.42230E+02
 -1       114 4.26895E+02
 -1       115 4.38630E+02
 -1       117 4.51526E+02
 -1       118 4.50000E+02
 -1       141 4.27184E+02
 -1       142 4.40273E+02
 -1       144 4.39565E+02
 -1       145 4.48213E+02
 -1       146 4.53183E+02
 -1       232 4.36100E+02
 -1       234 4.37468E+02
 -1       235 4.36389E+02
 -1       237 4.42971E+02
 -1       238 4.51787E+02
 -1       240 4.46817E+02
 -1       241 4.50000E+02
 -1       259 4.48474E+02
 -1       260 4.61370E+02
 -1       261 4.57770E+02
 -1       297 4.51526E+02
 -1       298 4.50000E+02
 -1       299 4.61180E+02
 -1       301 5.00000E+02
 -1       302 4.73105E+02
 -1       312 4.48213E+02
 -1       313 4.53183E+02
 -1       315 4.57029E+02
 -1       316 4.63900E+02
 -1       317 4.62532E+02
 -1       360 4.51787E+02
 -1       362 4.46817E+02
 -1       363 4.50000E+02
 -1       365 4.60435E+02
 -1       366 4.72816E+02
 -1       368 4.59727E+02
 -1       369 4.63611E+02
 -3
 9999
