    1C
    1UUSER                                                              
    1UDATE              28.june.2020                                    
    1UTIME              14:54:00                                        
    1UHOST                                                              
    1UPGM               CalculiX                                        
    1UVERSION           Version DEVELOPMENT                             
    1UCOMPILETIME       Sat Jun 27 15:50:06 CEST 2020                    
    1UDIR                                                               
    1UDBN                                                               
    1UMAT    1EL                                                        
    1UMAT    2SI1                                                       
    2C                            16                                     1
 -1         1 1.00000E+00 1.00000E+00 0.00000E+00
 -1         2 1.00000E+00 0.00000E+00 0.00000E+00
 -1         3 1.00000E+00 0.00000E+00 1.00000E+00
 -1         4 1.00000E+00 1.00000E+00 1.00000E+00
 -1         5 0.00000E+00 1.00000E+00 0.00000E+00
 -1         6 0.00000E+00 0.00000E+00 0.00000E+00
 -1         7 0.00000E+00 0.00000E+00 1.00000E+00
 -1         8 0.00000E+00 1.00000E+00 1.00000E+00
 -1        21 7.50000E-01 7.50000E-01 1.00000E+00
 -1        22 7.50000E-01 2.50000E-01 1.00000E+00
 -1        23 7.50000E-01 2.50000E-01 1.50000E+00
 -1        24 7.50000E-01 7.50000E-01 1.50000E+00
 -1        25 2.50000E-01 7.50000E-01 1.00000E+00
 -1        26 2.50000E-01 2.50000E-01 1.00000E+00
 -1        27 2.50000E-01 2.50000E-01 1.50000E+00
 -1        28 2.50000E-01 7.50000E-01 1.50000E+00
 -3
    3C                             2                                     1
 -1         1    1    0    1
 -2         1         2         3         4         5         6         7         8
 -1         2    1    0    1
 -2        21        22        23        24        25        26        27        28
 -3
    1PSTEP                         1           1           1          
  100CL  101 1.000000000          16                     0    1           1
 -4  DISP        4    1
 -5  D1          1    2    1    0
 -5  D2          1    2    2    0
 -5  D3          1    2    3    0
 -5  ALL         1    2    0    0    1ALL
 -1         1 0.00000E+00 0.00000E+00 0.00000E+00
 -1         2 0.00000E+00 7.22257E-25 0.00000E+00
 -1         3-9.47095E-21 1.48024E-20-1.19069E-04
 -1         4-5.30187E-21 1.47958E-20-1.19069E-04
 -1         5-5.58600E-22 5.59155E-21 0.00000E+00
 -1         6 7.13074E-23 5.58903E-21 0.00000E+00
 -1         7-9.54706E-21 1.33810E-20-1.19069E-04
 -1         8-4.73134E-21 1.33817E-20-1.19069E-04
 -1        21 3.66041E-21-3.07380E-20-1.19069E-04
 -1        22 3.60045E-21-3.07513E-20-1.19069E-04
 -1        23 0.00000E+00 0.00000E+00-3.57334E-04
 -1        24 0.00000E+00 0.00000E+00-3.57334E-04
 -1        25 6.82584E-21-5.22447E-21-1.19069E-04
 -1        26 7.92353E-21-5.22944E-21-1.19069E-04
 -1        27 0.00000E+00 0.00000E+00-3.57334E-04
 -1        28 0.00000E+00 0.00000E+00-3.57334E-04
 -3
    1PSTEP                         2           1           1          
  100CL  101 1.000000000          16                     0    1           1
 -4  STRESS      6    1
 -5  SXX         1    4    1    1
 -5  SYY         1    4    2    2
 -5  SZZ         1    4    3    3
 -5  SXY         1    4    1    2
 -5  SYZ         1    4    2    3
 -5  SZX         1    4    3    1
 -1         1 1.17319E-16-1.51685E-19-2.49990E+01-5.87179E-16 5.80501E-16-1.29330E-15
 -1         2-1.49758E-17-1.51685E-19-2.49990E+01-5.86839E-16 5.81120E-16-7.09136E-16
 -1         3 1.59844E-17-1.38981E-18-2.49990E+01 5.87065E-16 1.03239E-17 1.96569E-15
 -1         4-1.19824E-16-1.38981E-18-2.49990E+01 5.86297E-16 9.70510E-18 1.11475E-15
 -1         5 1.17319E-16 5.28181E-19-2.49990E+01-6.53326E-16 1.73872E-15-1.17477E-15
 -1         6-1.49758E-17 5.28181E-19-2.49990E+01-6.52987E-16 1.73891E-15-7.24610E-16
 -1         7 1.59844E-17 1.46588E-19-2.49990E+01 6.54969E-16-1.23290E-15 1.95022E-15
 -1         8-1.19824E-16 1.46588E-19-2.49990E+01 6.54201E-16-1.23310E-15 1.23328E-15
 -1        21-1.33008E-15 5.56120E-18-9.99960E+01-5.34768E-15-2.04155E-14-2.72978E-14
 -1        22-1.81652E-15 5.56120E-18-9.99960E+01-5.34942E-15-2.04127E-14 1.23847E-14
 -1        23 2.56955E-20-5.83754E-23-9.99960E+01 9.27673E-20 5.90538E-15 8.94327E-15
 -1        24 2.74208E-20-5.83754E-23-9.99960E+01 9.27735E-20 5.90260E-15-5.49523E-16
 -1        25-1.33008E-15 2.08542E-18-9.99960E+01-5.59090E-15-1.91365E-15-1.57533E-14
 -1        26-1.81652E-15 2.08542E-18-9.99960E+01-5.59264E-15-1.91261E-15-1.93043E-14
 -1        27 2.56955E-20-7.07034E-23-9.99960E+01 9.19047E-20 2.22720E-14 5.86474E-14
 -1        28 2.74208E-20-7.07034E-23-9.99960E+01 9.19108E-20 2.22709E-14 6.53962E-18
 -3
    1PSTEP                         3           1           1          
  100CL  101 1.000000000          16                     0    1           1
 -4  ERROR       1    1
 -5  STR(%)      1    1    0    0
 -1         1 9.05146E-15
 -1         2 9.05146E-15
 -1         3 9.05146E-15
 -1         4 9.05146E-15
 -1         5 9.05146E-15
 -1         6 9.05146E-15
 -1         7 9.05146E-15
 -1         8 9.05146E-15
 -1        21 9.05146E-15
 -1        22 9.05146E-15
 -1        23 9.05146E-15
 -1        24 9.05146E-15
 -1        25 9.05146E-15
 -1        26 9.05146E-15
 -1        27 9.05146E-15
 -1        28 9.05146E-15
 -3
 9999
