    1C
    1UModel: beam     Date: 10-Mar-1998                                 
    1UUSER                                                              
    1UDATE              23.february.2024                                
    1UTIME              17:09:09                                        
    1UHOST                                                              
    1UPGM               CalculiX                                        
    1UVERSION           Version DEVELOPMENT                             
    1UCOMPILETIME       Fri Feb 23 17:06:32 CET 2024                    
    1UDIR                                                               
    1UDBN                                                               
    1UMAT    1EL                                                        
    2C                            81                                     1
 -1         1 0.00000E+00 0.00000E+00 0.00000E+00
 -1         2 1.00000E+00 0.00000E+00 0.00000E+00
 -1         3 1.00000E+00 1.50000E+00 0.00000E+00
 -1         4 0.00000E+00 1.50000E+00 0.00000E+00
 -1         5 0.00000E+00 0.00000E+00 8.00000E+00
 -1         6 1.00000E+00 0.00000E+00 8.00000E+00
 -1         7 1.00000E+00 1.50000E+00 8.00000E+00
 -1         8 0.00000E+00 1.50000E+00 8.00000E+00
 -1        10 5.00000E-01 0.00000E+00 0.00000E+00
 -1        13 1.00000E+00 7.50000E-01 0.00000E+00
 -1        16 5.00000E-01 1.50000E+00 0.00000E+00
 -1        19 0.00000E+00 7.50000E-01 0.00000E+00
 -1        22 5.00000E-01 0.00000E+00 8.00000E+00
 -1        25 1.00000E+00 7.50000E-01 8.00000E+00
 -1        28 5.00000E-01 1.50000E+00 8.00000E+00
 -1        31 0.00000E+00 7.50000E-01 8.00000E+00
 -1        34 1.00000E+00 0.00000E+00 1.00000E+00
 -1        36 1.00000E+00 0.00000E+00 2.00000E+00
 -1        38 1.00000E+00 0.00000E+00 3.00000E+00
 -1        40 1.00000E+00 0.00000E+00 4.00000E+00
 -1        42 1.00000E+00 0.00000E+00 5.00000E+00
 -1        44 1.00000E+00 0.00000E+00 6.00000E+00
 -1        46 1.00000E+00 0.00000E+00 7.00000E+00
 -1        49 0.00000E+00 0.00000E+00 7.00000E+00
 -1        51 0.00000E+00 0.00000E+00 6.00000E+00
 -1        53 0.00000E+00 0.00000E+00 5.00000E+00
 -1        55 0.00000E+00 0.00000E+00 4.00000E+00
 -1        57 0.00000E+00 0.00000E+00 3.00000E+00
 -1        59 0.00000E+00 0.00000E+00 2.00000E+00
 -1        61 0.00000E+00 0.00000E+00 1.00000E+00
 -1        64 1.00000E+00 1.50000E+00 1.00000E+00
 -1        66 1.00000E+00 1.50000E+00 2.00000E+00
 -1        68 1.00000E+00 1.50000E+00 3.00000E+00
 -1        70 1.00000E+00 1.50000E+00 4.00000E+00
 -1        72 1.00000E+00 1.50000E+00 5.00000E+00
 -1        74 1.00000E+00 1.50000E+00 6.00000E+00
 -1        76 1.00000E+00 1.50000E+00 7.00000E+00
 -1        79 0.00000E+00 1.50000E+00 1.00000E+00
 -1        81 0.00000E+00 1.50000E+00 2.00000E+00
 -1        83 0.00000E+00 1.50000E+00 3.00000E+00
 -1        85 0.00000E+00 1.50000E+00 4.00000E+00
 -1        87 0.00000E+00 1.50000E+00 5.00000E+00
 -1        89 0.00000E+00 1.50000E+00 6.00000E+00
 -1        91 0.00000E+00 1.50000E+00 7.00000E+00
 -1        95 5.00000E-01 7.50000E-01 0.00000E+00
 -1       100 5.00000E-01 7.50000E-01 8.00000E+00
 -1       105 5.00000E-01 0.00000E+00 1.00000E+00
 -1       109 5.00000E-01 0.00000E+00 2.00000E+00
 -1       113 5.00000E-01 0.00000E+00 3.00000E+00
 -1       117 5.00000E-01 0.00000E+00 4.00000E+00
 -1       121 5.00000E-01 0.00000E+00 5.00000E+00
 -1       125 5.00000E-01 0.00000E+00 6.00000E+00
 -1       129 5.00000E-01 0.00000E+00 7.00000E+00
 -1       134 1.00000E+00 7.50000E-01 1.00000E+00
 -1       138 1.00000E+00 7.50000E-01 2.00000E+00
 -1       142 1.00000E+00 7.50000E-01 3.00000E+00
 -1       146 1.00000E+00 7.50000E-01 4.00000E+00
 -1       150 1.00000E+00 7.50000E-01 5.00000E+00
 -1       154 1.00000E+00 7.50000E-01 6.00000E+00
 -1       158 1.00000E+00 7.50000E-01 7.00000E+00
 -1       163 5.00000E-01 1.50000E+00 1.00000E+00
 -1       167 5.00000E-01 1.50000E+00 2.00000E+00
 -1       171 5.00000E-01 1.50000E+00 3.00000E+00
 -1       175 5.00000E-01 1.50000E+00 4.00000E+00
 -1       179 5.00000E-01 1.50000E+00 5.00000E+00
 -1       183 5.00000E-01 1.50000E+00 6.00000E+00
 -1       187 5.00000E-01 1.50000E+00 7.00000E+00
 -1       192 0.00000E+00 7.50000E-01 1.00000E+00
 -1       196 0.00000E+00 7.50000E-01 2.00000E+00
 -1       200 0.00000E+00 7.50000E-01 3.00000E+00
 -1       204 0.00000E+00 7.50000E-01 4.00000E+00
 -1       208 0.00000E+00 7.50000E-01 5.00000E+00
 -1       212 0.00000E+00 7.50000E-01 6.00000E+00
 -1       216 0.00000E+00 7.50000E-01 7.00000E+00
 -1       222 5.00000E-01 7.50000E-01 1.00000E+00
 -1       228 5.00000E-01 7.50000E-01 2.00000E+00
 -1       234 5.00000E-01 7.50000E-01 3.00000E+00
 -1       240 5.00000E-01 7.50000E-01 4.00000E+00
 -1       246 5.00000E-01 7.50000E-01 5.00000E+00
 -1       252 5.00000E-01 7.50000E-01 6.00000E+00
 -1       258 5.00000E-01 7.50000E-01 7.00000E+00
 -3
    3C                            32                                     1
 -1         1    1    0    1
 -2         1        10        95        19        61       105       222       192
 -1         2    1    0    1
 -2        10         2        13        95       105        34       134       222
 -1         3    1    0    1
 -2        19        95        16         4       192       222       163        79
 -1         4    1    0    1
 -2        95        13         3        16       222       134        64       163
 -1         5    1    0    1
 -2        61       105       222       192        59       109       228       196
 -1         6    1    0    1
 -2       105        34       134       222       109        36       138       228
 -1         7    1    0    1
 -2       192       222       163        79       196       228       167        81
 -1         8    1    0    1
 -2       222       134        64       163       228       138        66       167
 -1         9    1    0    1
 -2        59       109       228       196        57       113       234       200
 -1        10    1    0    1
 -2       109        36       138       228       113        38       142       234
 -1        11    1    0    1
 -2       196       228       167        81       200       234       171        83
 -1        12    1    0    1
 -2       228       138        66       167       234       142        68       171
 -1        13    1    0    1
 -2        57       113       234       200        55       117       240       204
 -1        14    1    0    1
 -2       113        38       142       234       117        40       146       240
 -1        15    1    0    1
 -2       200       234       171        83       204       240       175        85
 -1        16    1    0    1
 -2       234       142        68       171       240       146        70       175
 -1        17    1    0    1
 -2        55       117       240       204        53       121       246       208
 -1        18    1    0    1
 -2       117        40       146       240       121        42       150       246
 -1        19    1    0    1
 -2       204       240       175        85       208       246       179        87
 -1        20    1    0    1
 -2       240       146        70       175       246       150        72       179
 -1        21    1    0    1
 -2        53       121       246       208        51       125       252       212
 -1        22    1    0    1
 -2       121        42       150       246       125        44       154       252
 -1        23    1    0    1
 -2       208       246       179        87       212       252       183        89
 -1        24    1    0    1
 -2       246       150        72       179       252       154        74       183
 -1        25    1    0    1
 -2        51       125       252       212        49       129       258       216
 -1        26    1    0    1
 -2       125        44       154       252       129        46       158       258
 -1        27    1    0    1
 -2       212       252       183        89       216       258       187        91
 -1        28    1    0    1
 -2       252       154        74       183       258       158        76       187
 -1        29    1    0    1
 -2        49       129       258       216         5        22       100        31
 -1        30    1    0    1
 -2       129        46       158       258        22         6        25       100
 -1        31    1    0    1
 -2       216       258       187        91        31       100        28         8
 -1        32    1    0    1
 -2       258       158        76       187       100        25         7        28
 -3
    1PSTEP                         1           1           2          
  100CL  111 0.00000E+00          81                     3   11           1
 -4  NORM        4    1
 -5  NORMX       1    2    1    0
 -5  NORMY       1    2    2    0
 -5  NORMZ       1    2    3    0
 -5  ALL         1    2    0    0    1ALL
 -1         1 0.00000E+00 0.00000E+00 0.00000E+00
 -1         2 0.00000E+00 0.00000E+00 0.00000E+00
 -1         3 0.00000E+00 0.00000E+00 0.00000E+00
 -1         4 0.00000E+00 0.00000E+00 0.00000E+00
 -1         5-5.77350E-01-5.77350E-01 5.77350E-01
 -1         6 5.77350E-01-5.77350E-01 5.77350E-01
 -1         7 5.77350E-01 5.77350E-01 5.77350E-01
 -1         8-5.77350E-01 5.77350E-01 5.77350E-01
 -1        10 0.00000E+00 0.00000E+00 0.00000E+00
 -1        13 0.00000E+00 0.00000E+00 0.00000E+00
 -1        16 0.00000E+00 0.00000E+00 0.00000E+00
 -1        19 0.00000E+00 0.00000E+00 0.00000E+00
 -1        22 0.00000E+00-7.07107E-01 7.07107E-01
 -1        25 7.07107E-01 0.00000E+00 7.07107E-01
 -1        28 0.00000E+00 7.07107E-01 7.07107E-01
 -1        31-7.07107E-01 0.00000E+00 7.07107E-01
 -1        34 7.07107E-01-7.07107E-01 0.00000E+00
 -1        36 7.07107E-01-7.07107E-01 0.00000E+00
 -1        38 7.07107E-01-7.07107E-01 0.00000E+00
 -1        40 7.07107E-01-7.07107E-01 0.00000E+00
 -1        42 7.07107E-01-7.07107E-01 0.00000E+00
 -1        44 7.07107E-01-7.07107E-01 0.00000E+00
 -1        46 7.07107E-01-7.07107E-01 0.00000E+00
 -1        49-7.07107E-01-7.07107E-01 0.00000E+00
 -1        51-7.07107E-01-7.07107E-01 0.00000E+00
 -1        53-7.07107E-01-7.07107E-01 0.00000E+00
 -1        55-7.07107E-01-7.07107E-01 0.00000E+00
 -1        57-7.07107E-01-7.07107E-01 0.00000E+00
 -1        59-7.07107E-01-7.07107E-01 0.00000E+00
 -1        61-7.07107E-01-7.07107E-01 0.00000E+00
 -1        64 7.07107E-01 7.07107E-01 0.00000E+00
 -1        66 7.07107E-01 7.07107E-01 0.00000E+00
 -1        68 7.07107E-01 7.07107E-01 0.00000E+00
 -1        70 7.07107E-01 7.07107E-01 0.00000E+00
 -1        72 7.07107E-01 7.07107E-01 0.00000E+00
 -1        74 7.07107E-01 7.07107E-01 0.00000E+00
 -1        76 7.07107E-01 7.07107E-01 0.00000E+00
 -1        79-7.07107E-01 7.07107E-01 0.00000E+00
 -1        81-7.07107E-01 7.07107E-01 0.00000E+00
 -1        83-7.07107E-01 7.07107E-01 0.00000E+00
 -1        85-7.07107E-01 7.07107E-01 0.00000E+00
 -1        87-7.07107E-01 7.07107E-01 0.00000E+00
 -1        89-7.07107E-01 7.07107E-01 0.00000E+00
 -1        91-7.07107E-01 7.07107E-01 0.00000E+00
 -1        95 0.00000E+00 0.00000E+00 0.00000E+00
 -1       100 0.00000E+00 0.00000E+00 1.00000E+00
 -1       105 0.00000E+00-1.00000E+00 0.00000E+00
 -1       109 0.00000E+00-1.00000E+00 0.00000E+00
 -1       113 0.00000E+00-1.00000E+00 0.00000E+00
 -1       117 0.00000E+00-1.00000E+00 0.00000E+00
 -1       121 0.00000E+00-1.00000E+00 0.00000E+00
 -1       125 0.00000E+00-1.00000E+00 0.00000E+00
 -1       129 0.00000E+00-1.00000E+00 0.00000E+00
 -1       134 1.00000E+00 0.00000E+00 0.00000E+00
 -1       138 1.00000E+00 0.00000E+00 0.00000E+00
 -1       142 1.00000E+00 0.00000E+00 0.00000E+00
 -1       146 1.00000E+00 0.00000E+00 0.00000E+00
 -1       150 1.00000E+00 0.00000E+00 0.00000E+00
 -1       154 1.00000E+00 0.00000E+00 0.00000E+00
 -1       158 1.00000E+00 0.00000E+00 0.00000E+00
 -1       163 0.00000E+00 1.00000E+00 0.00000E+00
 -1       167 0.00000E+00 1.00000E+00 0.00000E+00
 -1       171 0.00000E+00 1.00000E+00 0.00000E+00
 -1       175 0.00000E+00 1.00000E+00 0.00000E+00
 -1       179 0.00000E+00 1.00000E+00 0.00000E+00
 -1       183 0.00000E+00 1.00000E+00 0.00000E+00
 -1       187 0.00000E+00 1.00000E+00 0.00000E+00
 -1       192-1.00000E+00 0.00000E+00 0.00000E+00
 -1       196-1.00000E+00 0.00000E+00 0.00000E+00
 -1       200-1.00000E+00 0.00000E+00 0.00000E+00
 -1       204-1.00000E+00 0.00000E+00 0.00000E+00
 -1       208-1.00000E+00 0.00000E+00 0.00000E+00
 -1       212-1.00000E+00 0.00000E+00 0.00000E+00
 -1       216-1.00000E+00 0.00000E+00 0.00000E+00
 -1       222 0.00000E+00 0.00000E+00 0.00000E+00
 -1       228 0.00000E+00 0.00000E+00 0.00000E+00
 -1       234 0.00000E+00 0.00000E+00 0.00000E+00
 -1       240 0.00000E+00 0.00000E+00 0.00000E+00
 -1       246 0.00000E+00 0.00000E+00 0.00000E+00
 -1       252 0.00000E+00 0.00000E+00 0.00000E+00
 -1       258 0.00000E+00 0.00000E+00 0.00000E+00
 -3
    1PSTEP                         2           1           2          
  100CL  112 15717.62535          81                     3   12           1
 -4  SENFREQ     2    1
 -5  DFDN        1    1    1    0
 -5  DFDNFIL     1    1    2    0
 -1         1 0.00000E+00 0.00000E+00
 -1         2 0.00000E+00 0.00000E+00
 -1         3 0.00000E+00 0.00000E+00
 -1         4 0.00000E+00 0.00000E+00
 -1         5 0.00000E+00 0.00000E+00
 -1         6 0.00000E+00 0.00000E+00
 -1         7 0.00000E+00 0.00000E+00
 -1         8 0.00000E+00 0.00000E+00
 -1        10 0.00000E+00 0.00000E+00
 -1        13 0.00000E+00 0.00000E+00
 -1        16 0.00000E+00 0.00000E+00
 -1        19 0.00000E+00 0.00000E+00
 -1        22 0.00000E+00 0.00000E+00
 -1        25 0.00000E+00 0.00000E+00
 -1        28 0.00000E+00 0.00000E+00
 -1        31 0.00000E+00 0.00000E+00
 -1        34 0.00000E+00 0.00000E+00
 -1        36 4.06803E+09 2.37257E-01
 -1        38 1.06404E+09 1.59057E-01
 -1        40 2.90696E+08 2.23369E-02
 -1        42-3.55139E+08-7.32786E-02
 -1        44-1.90481E+09-1.26362E-01
 -1        46 0.00000E+00 0.00000E+00
 -1        49 0.00000E+00 0.00000E+00
 -1        51-1.90483E+09-1.26362E-01
 -1        53-3.55142E+08-7.32787E-02
 -1        55 2.90695E+08 2.23369E-02
 -1        57 1.06404E+09 1.59057E-01
 -1        59 4.06803E+09 2.37257E-01
 -1        61 0.00000E+00 0.00000E+00
 -1        64 0.00000E+00 0.00000E+00
 -1        66 4.06803E+09 2.37257E-01
 -1        68 1.06404E+09 1.59057E-01
 -1        70 2.90698E+08 2.23370E-02
 -1        72-3.55136E+08-7.32784E-02
 -1        74-1.90480E+09-1.26361E-01
 -1        76 0.00000E+00 0.00000E+00
 -1        79 0.00000E+00 0.00000E+00
 -1        81 4.06803E+09 2.37257E-01
 -1        83 1.06404E+09 1.59057E-01
 -1        85 2.90696E+08 2.23369E-02
 -1        87-3.55141E+08-7.32785E-02
 -1        89-1.90482E+09-1.26362E-01
 -1        91 0.00000E+00 0.00000E+00
 -1        95 0.00000E+00 0.00000E+00
 -1       100 0.00000E+00 0.00000E+00
 -1       105 0.00000E+00 0.00000E+00
 -1       109 1.96185E+09 2.59867E-01
 -1       113 4.37094E+08 1.79244E-01
 -1       117-9.52118E+07 2.44146E-02
 -1       121-6.83386E+08-8.43233E-02
 -1       125-2.76062E+09-1.43198E-01
 -1       129 0.00000E+00 0.00000E+00
 -1       134 0.00000E+00 0.00000E+00
 -1       138 6.92353E+09 2.97537E-01
 -1       142 1.83092E+09 2.07892E-01
 -1       146 5.59576E+08 2.93407E-02
 -1       150-4.54796E+08-9.43658E-02
 -1       154-2.68490E+09-1.54154E-01
 -1       158 0.00000E+00 0.00000E+00
 -1       163 0.00000E+00 0.00000E+00
 -1       167 1.96185E+09 2.59867E-01
 -1       171 4.37095E+08 1.79244E-01
 -1       175-9.52123E+07 2.44147E-02
 -1       179-6.83384E+08-8.43231E-02
 -1       183-2.76061E+09-1.43197E-01
 -1       187 0.00000E+00 0.00000E+00
 -1       192 0.00000E+00 0.00000E+00
 -1       196 6.92353E+09 2.97537E-01
 -1       200 1.83092E+09 2.07892E-01
 -1       204 5.59574E+08 2.93406E-02
 -1       208-4.54803E+08-9.43660E-02
 -1       212-2.68491E+09-1.54155E-01
 -1       216 0.00000E+00 0.00000E+00
 -1       222 0.00000E+00 0.00000E+00
 -1       228 0.00000E+00 0.00000E+00
 -1       234 0.00000E+00 0.00000E+00
 -1       240 0.00000E+00 0.00000E+00
 -1       246 0.00000E+00 0.00000E+00
 -1       252 0.00000E+00 0.00000E+00
 -1       258 0.00000E+00 0.00000E+00
 -3
    1PSTEP                         3           1           2          
  100CL  113 21366.30468          81                     3   13           1
 -4  SENFREQ     2    1
 -5  DFDN        1    1    1    0
 -5  DFDNFIL     1    1    2    0
 -1         1 0.00000E+00 0.00000E+00
 -1         2 0.00000E+00 0.00000E+00
 -1         3 0.00000E+00 0.00000E+00
 -1         4 0.00000E+00 0.00000E+00
 -1         5 0.00000E+00 0.00000E+00
 -1         6 0.00000E+00 0.00000E+00
 -1         7 0.00000E+00 0.00000E+00
 -1         8 0.00000E+00 0.00000E+00
 -1        10 0.00000E+00 0.00000E+00
 -1        13 0.00000E+00 0.00000E+00
 -1        16 0.00000E+00 0.00000E+00
 -1        19 0.00000E+00 0.00000E+00
 -1        22 0.00000E+00 0.00000E+00
 -1        25 0.00000E+00 0.00000E+00
 -1        28 0.00000E+00 0.00000E+00
 -1        31 0.00000E+00 0.00000E+00
 -1        34 0.00000E+00 0.00000E+00
 -1        36 7.24463E+09 2.40757E-01
 -1        38 1.88195E+09 1.59009E-01
 -1        40 4.97843E+08 2.26703E-02
 -1        42-6.71917E+08-7.26357E-02
 -1        44-3.52519E+09-1.25442E-01
 -1        46 0.00000E+00 0.00000E+00
 -1        49 0.00000E+00 0.00000E+00
 -1        51-3.52519E+09-1.25442E-01
 -1        53-6.71918E+08-7.26358E-02
 -1        55 4.97842E+08 2.26703E-02
 -1        57 1.88195E+09 1.59009E-01
 -1        59 7.24463E+09 2.40757E-01
 -1        61 0.00000E+00 0.00000E+00
 -1        64 0.00000E+00 0.00000E+00
 -1        66 7.24463E+09 2.40757E-01
 -1        68 1.88195E+09 1.59009E-01
 -1        70 4.97843E+08 2.26703E-02
 -1        72-6.71917E+08-7.26357E-02
 -1        74-3.52518E+09-1.25442E-01
 -1        76 0.00000E+00 0.00000E+00
 -1        79 0.00000E+00 0.00000E+00
 -1        81 7.24463E+09 2.40757E-01
 -1        83 1.88195E+09 1.59009E-01
 -1        85 4.97843E+08 2.26703E-02
 -1        87-6.71919E+08-7.26357E-02
 -1        89-3.52519E+09-1.25442E-01
 -1        91 0.00000E+00 0.00000E+00
 -1        95 0.00000E+00 0.00000E+00
 -1       100 0.00000E+00 0.00000E+00
 -1       105 0.00000E+00 0.00000E+00
 -1       109 1.41079E+10 2.78606E-01
 -1       113 3.74047E+09 1.84068E-01
 -1       117 1.20095E+09 2.66149E-02
 -1       121-7.91205E+08-8.29126E-02
 -1       125-4.96315E+09-1.41909E-01
 -1       129 0.00000E+00 0.00000E+00
 -1       134 0.00000E+00 0.00000E+00
 -1       138 3.14938E+09 2.79376E-01
 -1       142 6.75299E+08 1.99929E-01
 -1       146-2.35621E+08 2.69020E-02
 -1       150-1.27968E+09-9.46002E-02
 -1       154-5.08084E+09-1.53406E-01
 -1       158 0.00000E+00 0.00000E+00
 -1       163 0.00000E+00 0.00000E+00
 -1       167 1.41079E+10 2.78606E-01
 -1       171 3.74047E+09 1.84068E-01
 -1       175 1.20096E+09 2.66149E-02
 -1       179-7.91201E+08-8.29125E-02
 -1       183-4.96314E+09-1.41908E-01
 -1       187 0.00000E+00 0.00000E+00
 -1       192 0.00000E+00 0.00000E+00
 -1       196 3.14938E+09 2.79376E-01
 -1       200 6.75298E+08 1.99929E-01
 -1       204-2.35622E+08 2.69020E-02
 -1       208-1.27968E+09-9.46003E-02
 -1       212-5.08085E+09-1.53406E-01
 -1       216 0.00000E+00 0.00000E+00
 -1       222 0.00000E+00 0.00000E+00
 -1       228 0.00000E+00 0.00000E+00
 -1       234 0.00000E+00 0.00000E+00
 -1       240 0.00000E+00 0.00000E+00
 -1       246 0.00000E+00 0.00000E+00
 -1       252 0.00000E+00 0.00000E+00
 -1       258 0.00000E+00 0.00000E+00
 -3
    1PSTEP                         4           1           2          
  100CL  114 93946.12418          81                     3   14           1
 -4  SENFREQ     2    1
 -5  DFDN        1    1    1    0
 -5  DFDNFIL     1    1    2    0
 -1         1 0.00000E+00 0.00000E+00
 -1         2 0.00000E+00 0.00000E+00
 -1         3 0.00000E+00 0.00000E+00
 -1         4 0.00000E+00 0.00000E+00
 -1         5 0.00000E+00 0.00000E+00
 -1         6 0.00000E+00 0.00000E+00
 -1         7 0.00000E+00 0.00000E+00
 -1         8 0.00000E+00 0.00000E+00
 -1        10 0.00000E+00 0.00000E+00
 -1        13 0.00000E+00 0.00000E+00
 -1        16 0.00000E+00 0.00000E+00
 -1        19 0.00000E+00 0.00000E+00
 -1        22 0.00000E+00 0.00000E+00
 -1        25 0.00000E+00 0.00000E+00
 -1        28 0.00000E+00 0.00000E+00
 -1        31 0.00000E+00 0.00000E+00
 -1        34 0.00000E+00 0.00000E+00
 -1        36 1.34725E+11 1.95455E-01
 -1        38 3.82199E+10 1.29859E-01
 -1        40 3.07516E+09 4.16157E-03
 -1        42-3.21834E+10-1.19123E-01
 -1        44-1.24317E+11-1.86938E-01
 -1        46 0.00000E+00 0.00000E+00
 -1        49 0.00000E+00 0.00000E+00
 -1        51-1.24317E+11-1.86938E-01
 -1        53-3.21834E+10-1.19123E-01
 -1        55 3.07516E+09 4.16157E-03
 -1        57 3.82199E+10 1.29859E-01
 -1        59 1.34725E+11 1.95455E-01
 -1        61 0.00000E+00 0.00000E+00
 -1        64 0.00000E+00 0.00000E+00
 -1        66 1.34725E+11 1.95455E-01
 -1        68 3.82200E+10 1.29859E-01
 -1        70 3.07516E+09 4.16158E-03
 -1        72-3.21833E+10-1.19123E-01
 -1        74-1.24317E+11-1.86938E-01
 -1        76 0.00000E+00 0.00000E+00
 -1        79 0.00000E+00 0.00000E+00
 -1        81 1.34725E+11 1.95455E-01
 -1        83 3.82200E+10 1.29859E-01
 -1        85 3.07516E+09 4.16158E-03
 -1        87-3.21833E+10-1.19123E-01
 -1        89-1.24317E+11-1.86938E-01
 -1        91 0.00000E+00 0.00000E+00
 -1        95 0.00000E+00 0.00000E+00
 -1       100 0.00000E+00 0.00000E+00
 -1       105 0.00000E+00 0.00000E+00
 -1       109 6.70034E+10 2.14214E-01
 -1       113 5.02312E+09 1.45543E-01
 -1       117-3.20769E+10 2.70259E-03
 -1       121-6.92540E+10-1.38055E-01
 -1       125-2.01733E+11-2.14062E-01
 -1       129 0.00000E+00 0.00000E+00
 -1       134 0.00000E+00 0.00000E+00
 -1       138 2.21234E+11 2.44695E-01
 -1       142 7.65535E+10 1.70528E-01
 -1       146 3.52274E+10 8.46417E-03
 -1       150-5.96017E+09-1.49192E-01
 -1       154-8.19103E+10-2.19809E-01
 -1       158 0.00000E+00 0.00000E+00
 -1       163 0.00000E+00 0.00000E+00
 -1       167 6.70034E+10 2.14214E-01
 -1       171 5.02313E+09 1.45543E-01
 -1       175-3.20769E+10 2.70260E-03
 -1       179-6.92539E+10-1.38055E-01
 -1       183-2.01733E+11-2.14061E-01
 -1       187 0.00000E+00 0.00000E+00
 -1       192 0.00000E+00 0.00000E+00
 -1       196 2.21234E+11 2.44695E-01
 -1       200 7.65535E+10 1.70528E-01
 -1       204 3.52273E+10 8.46417E-03
 -1       208-5.96018E+09-1.49192E-01
 -1       212-8.19104E+10-2.19809E-01
 -1       216 0.00000E+00 0.00000E+00
 -1       222 0.00000E+00 0.00000E+00
 -1       228 0.00000E+00 0.00000E+00
 -1       234 0.00000E+00 0.00000E+00
 -1       240 0.00000E+00 0.00000E+00
 -1       246 0.00000E+00 0.00000E+00
 -1       252 0.00000E+00 0.00000E+00
 -1       258 0.00000E+00 0.00000E+00
 -3
    1PSTEP                         5           1           2          
  100CL  115 94079.45572          81                     3   15           1
 -4  SENFREQ     2    1
 -5  DFDN        1    1    1    0
 -5  DFDNFIL     1    1    2    0
 -1         1 0.00000E+00 0.00000E+00
 -1         2 0.00000E+00 0.00000E+00
 -1         3 0.00000E+00 0.00000E+00
 -1         4 0.00000E+00 0.00000E+00
 -1         5 0.00000E+00 0.00000E+00
 -1         6 0.00000E+00 0.00000E+00
 -1         7 0.00000E+00 0.00000E+00
 -1         8 0.00000E+00 0.00000E+00
 -1        10 0.00000E+00 0.00000E+00
 -1        13 0.00000E+00 0.00000E+00
 -1        16 0.00000E+00 0.00000E+00
 -1        19 0.00000E+00 0.00000E+00
 -1        22 0.00000E+00 0.00000E+00
 -1        25 0.00000E+00 0.00000E+00
 -1        28 0.00000E+00 0.00000E+00
 -1        31 0.00000E+00 0.00000E+00
 -1        34 0.00000E+00 0.00000E+00
 -1        36-1.24306E+10-5.03086E-02
 -1        38 9.18146E+09 2.01732E-02
 -1        40 3.39516E+10 1.27762E-01
 -1        42 3.95311E+10 2.09525E-01
 -1        44 4.44186E+10 1.98472E-01
 -1        46 0.00000E+00 0.00000E+00
 -1        49 0.00000E+00 0.00000E+00
 -1        51 4.44186E+10 1.98472E-01
 -1        53 3.95311E+10 2.09525E-01
 -1        55 3.39516E+10 1.27762E-01
 -1        57 9.18146E+09 2.01732E-02
 -1        59-1.24307E+10-5.03086E-02
 -1        61 0.00000E+00 0.00000E+00
 -1        64 0.00000E+00 0.00000E+00
 -1        66-1.24306E+10-5.03086E-02
 -1        68 9.18146E+09 2.01732E-02
 -1        70 3.39516E+10 1.27762E-01
 -1        72 3.95311E+10 2.09525E-01
 -1        74 4.44186E+10 1.98472E-01
 -1        76 0.00000E+00 0.00000E+00
 -1        79 0.00000E+00 0.00000E+00
 -1        81-1.24307E+10-5.03086E-02
 -1        83 9.18146E+09 2.01732E-02
 -1        85 3.39516E+10 1.27762E-01
 -1        87 3.95311E+10 2.09525E-01
 -1        89 4.44186E+10 1.98472E-01
 -1        91 0.00000E+00 0.00000E+00
 -1        95 0.00000E+00 0.00000E+00
 -1       100 0.00000E+00 0.00000E+00
 -1       105 0.00000E+00 0.00000E+00
 -1       109-2.11512E+10-5.75565E-02
 -1       113-2.47285E+10 1.80220E-02
 -1       117-2.00291E+10 1.36904E-01
 -1       121-1.34983E+09 2.31312E-01
 -1       125 1.82496E+10 2.18129E-01
 -1       129 0.00000E+00 0.00000E+00
 -1       134 0.00000E+00 0.00000E+00
 -1       138-2.35139E+10-6.09582E-02
 -1       142 2.56448E+10 2.97885E-02
 -1       146 7.26148E+10 1.68721E-01
 -1       150 7.59364E+10 2.73596E-01
 -1       154 7.57432E+10 2.51998E-01
 -1       158 0.00000E+00 0.00000E+00
 -1       163 0.00000E+00 0.00000E+00
 -1       167-2.11512E+10-5.75565E-02
 -1       171-2.47285E+10 1.80220E-02
 -1       175-2.00291E+10 1.36904E-01
 -1       179-1.34983E+09 2.31312E-01
 -1       183 1.82497E+10 2.18129E-01
 -1       187 0.00000E+00 0.00000E+00
 -1       192 0.00000E+00 0.00000E+00
 -1       196-2.35139E+10-6.09582E-02
 -1       200 2.56448E+10 2.97885E-02
 -1       204 7.26148E+10 1.68721E-01
 -1       208 7.59364E+10 2.73596E-01
 -1       212 7.57432E+10 2.51998E-01
 -1       216 0.00000E+00 0.00000E+00
 -1       222 0.00000E+00 0.00000E+00
 -1       228 0.00000E+00 0.00000E+00
 -1       234 0.00000E+00 0.00000E+00
 -1       240 0.00000E+00 0.00000E+00
 -1       246 0.00000E+00 0.00000E+00
 -1       252 0.00000E+00 0.00000E+00
 -1       258 0.00000E+00 0.00000E+00
 -3
    1PSTEP                         6           1           2          
  100CL  116 119778.3087          81                     3   16           1
 -4  SENFREQ     2    1
 -5  DFDN        1    1    1    0
 -5  DFDNFIL     1    1    2    0
 -1         1 0.00000E+00 0.00000E+00
 -1         2 0.00000E+00 0.00000E+00
 -1         3 0.00000E+00 0.00000E+00
 -1         4 0.00000E+00 0.00000E+00
 -1         5 0.00000E+00 0.00000E+00
 -1         6 0.00000E+00 0.00000E+00
 -1         7 0.00000E+00 0.00000E+00
 -1         8 0.00000E+00 0.00000E+00
 -1        10 0.00000E+00 0.00000E+00
 -1        13 0.00000E+00 0.00000E+00
 -1        16 0.00000E+00 0.00000E+00
 -1        19 0.00000E+00 0.00000E+00
 -1        22 0.00000E+00 0.00000E+00
 -1        25 0.00000E+00 0.00000E+00
 -1        28 0.00000E+00 0.00000E+00
 -1        31 0.00000E+00 0.00000E+00
 -1        34 0.00000E+00 0.00000E+00
 -1        36-1.21873E+10-3.73121E-02
 -1        38 1.05947E+10 2.92734E-02
 -1        40 4.30922E+10 1.32907E-01
 -1        42 5.24877E+10 2.12862E-01
 -1        44 5.83129E+10 1.99318E-01
 -1        46 0.00000E+00 0.00000E+00
 -1        49 0.00000E+00 0.00000E+00
 -1        51 5.83129E+10 1.99318E-01
 -1        53 5.24877E+10 2.12862E-01
 -1        55 4.30922E+10 1.32907E-01
 -1        57 1.05947E+10 2.92734E-02
 -1        59-1.21873E+10-3.73121E-02
 -1        61 0.00000E+00 0.00000E+00
 -1        64 0.00000E+00 0.00000E+00
 -1        66-1.21873E+10-3.73121E-02
 -1        68 1.05947E+10 2.92734E-02
 -1        70 4.30922E+10 1.32907E-01
 -1        72 5.24877E+10 2.12862E-01
 -1        74 5.83129E+10 1.99318E-01
 -1        76 0.00000E+00 0.00000E+00
 -1        79 0.00000E+00 0.00000E+00
 -1        81-1.21873E+10-3.73121E-02
 -1        83 1.05947E+10 2.92734E-02
 -1        85 4.30922E+10 1.32907E-01
 -1        87 5.24877E+10 2.12862E-01
 -1        89 5.83129E+10 1.99318E-01
 -1        91 0.00000E+00 0.00000E+00
 -1        95 0.00000E+00 0.00000E+00
 -1       100 0.00000E+00 0.00000E+00
 -1       105 0.00000E+00 0.00000E+00
 -1       109-2.36154E+10-4.20892E-02
 -1       113 4.99233E+10 3.74091E-02
 -1       117 1.24105E+11 1.58254E-01
 -1       121 1.24954E+11 2.48906E-01
 -1       125 1.14037E+11 2.31051E-01
 -1       129 0.00000E+00 0.00000E+00
 -1       134 0.00000E+00 0.00000E+00
 -1       138-2.72592E+10-4.69625E-02
 -1       142-4.27529E+10 2.75500E-02
 -1       146-3.91555E+10 1.51238E-01
 -1       150-8.56340E+09 2.55973E-01
 -1       154 2.18585E+10 2.34911E-01
 -1       158 0.00000E+00 0.00000E+00
 -1       163 0.00000E+00 0.00000E+00
 -1       167-2.36154E+10-4.20892E-02
 -1       171 4.99233E+10 3.74091E-02
 -1       175 1.24105E+11 1.58254E-01
 -1       179 1.24954E+11 2.48906E-01
 -1       183 1.14037E+11 2.31051E-01
 -1       187 0.00000E+00 0.00000E+00
 -1       192 0.00000E+00 0.00000E+00
 -1       196-2.72592E+10-4.69625E-02
 -1       200-4.27529E+10 2.75500E-02
 -1       204-3.91555E+10 1.51238E-01
 -1       208-8.56340E+09 2.55973E-01
 -1       212 2.18585E+10 2.34911E-01
 -1       216 0.00000E+00 0.00000E+00
 -1       222 0.00000E+00 0.00000E+00
 -1       228 0.00000E+00 0.00000E+00
 -1       234 0.00000E+00 0.00000E+00
 -1       240 0.00000E+00 0.00000E+00
 -1       246 0.00000E+00 0.00000E+00
 -1       252 0.00000E+00 0.00000E+00
 -1       258 0.00000E+00 0.00000E+00
 -3
    1PSTEP                         7           1           2          
  100CL  117 164426.6391          81                     3   17           1
 -4  SENFREQ     2    1
 -5  DFDN        1    1    1    0
 -5  DFDNFIL     1    1    2    0
 -1         1 0.00000E+00 0.00000E+00
 -1         2 0.00000E+00 0.00000E+00
 -1         3 0.00000E+00 0.00000E+00
 -1         4 0.00000E+00 0.00000E+00