    1C
    1UModel: beam     Date: 10-Mar-1998                                 
    1UUSER                                                              
    1UDATE              23.february.2024                                
    1UTIME              08:01:26                                        
    1UHOST                                                              
    1UPGM               CalculiX                                        
    1UVERSION           Version DEVELOPMENT                             
    1UCOMPILETIME       Thu 22 Feb 2024 09:48:29 AM CET                    
    1UDIR                                                               
    1UDBN                                                               
    1UMAT    1EL                                                        
    2C                            81                                     1
 -1         1 0.00000E+00 0.00000E+00 0.00000E+00
 -1         2 1.00000E+00 0.00000E+00 0.00000E+00
 -1         3 1.00000E+00 1.50000E+00 0.00000E+00
 -1         4 0.00000E+00 1.50000E+00 0.00000E+00
 -1         5 0.00000E+00 0.00000E+00 8.00000E+00
 -1         6 1.00000E+00 0.00000E+00 8.00000E+00
 -1         7 1.00000E+00 1.50000E+00 8.00000E+00
 -1         8 0.00000E+00 1.50000E+00 8.00000E+00
 -1        10 5.00000E-01 0.00000E+00 0.00000E+00
 -1        13 1.00000E+00 7.50000E-01 0.00000E+00
 -1        16 5.00000E-01 1.50000E+00 0.00000E+00
 -1        19 0.00000E+00 7.50000E-01 0.00000E+00
 -1        22 5.00000E-01 0.00000E+00 8.00000E+00
 -1        25 1.00000E+00 7.50000E-01 8.00000E+00
 -1        28 5.00000E-01 1.50000E+00 8.00000E+00
 -1        31 0.00000E+00 7.50000E-01 8.00000E+00
 -1        34 1.00000E+00 0.00000E+00 1.00000E+00
 -1        36 1.00000E+00 0.00000E+00 2.00000E+00
 -1        38 1.00000E+00 0.00000E+00 3.00000E+00
 -1        40 1.00000E+00 0.00000E+00 4.00000E+00
 -1        42 1.00000E+00 0.00000E+00 5.00000E+00
 -1        44 1.00000E+00 0.00000E+00 6.00000E+00
 -1        46 1.00000E+00 0.00000E+00 7.00000E+00
 -1        49 0.00000E+00 0.00000E+00 7.00000E+00
 -1        51 0.00000E+00 0.00000E+00 6.00000E+00
 -1        53 0.00000E+00 0.00000E+00 5.00000E+00
 -1        55 0.00000E+00 0.00000E+00 4.00000E+00
 -1        57 0.00000E+00 0.00000E+00 3.00000E+00
 -1        59 0.00000E+00 0.00000E+00 2.00000E+00
 -1        61 0.00000E+00 0.00000E+00 1.00000E+00
 -1        64 1.00000E+00 1.50000E+00 1.00000E+00
 -1        66 1.00000E+00 1.50000E+00 2.00000E+00
 -1        68 1.00000E+00 1.50000E+00 3.00000E+00
 -1        70 1.00000E+00 1.50000E+00 4.00000E+00
 -1        72 1.00000E+00 1.50000E+00 5.00000E+00
 -1        74 1.00000E+00 1.50000E+00 6.00000E+00
 -1        76 1.00000E+00 1.50000E+00 7.00000E+00
 -1        79 0.00000E+00 1.50000E+00 1.00000E+00
 -1        81 0.00000E+00 1.50000E+00 2.00000E+00
 -1        83 0.00000E+00 1.50000E+00 3.00000E+00
 -1        85 0.00000E+00 1.50000E+00 4.00000E+00
 -1        87 0.00000E+00 1.50000E+00 5.00000E+00
 -1        89 0.00000E+00 1.50000E+00 6.00000E+00
 -1        91 0.00000E+00 1.50000E+00 7.00000E+00
 -1        95 5.00000E-01 7.50000E-01 0.00000E+00
 -1       100 5.00000E-01 7.50000E-01 8.00000E+00
 -1       105 5.00000E-01 0.00000E+00 1.00000E+00
 -1       109 5.00000E-01 0.00000E+00 2.00000E+00
 -1       113 5.00000E-01 0.00000E+00 3.00000E+00
 -1       117 5.00000E-01 0.00000E+00 4.00000E+00
 -1       121 5.00000E-01 0.00000E+00 5.00000E+00
 -1       125 5.00000E-01 0.00000E+00 6.00000E+00
 -1       129 5.00000E-01 0.00000E+00 7.00000E+00
 -1       134 1.00000E+00 7.50000E-01 1.00000E+00
 -1       138 1.00000E+00 7.50000E-01 2.00000E+00
 -1       142 1.00000E+00 7.50000E-01 3.00000E+00
 -1       146 1.00000E+00 7.50000E-01 4.00000E+00
 -1       150 1.00000E+00 7.50000E-01 5.00000E+00
 -1       154 1.00000E+00 7.50000E-01 6.00000E+00
 -1       158 1.00000E+00 7.50000E-01 7.00000E+00
 -1       163 5.00000E-01 1.50000E+00 1.00000E+00
 -1       167 5.00000E-01 1.50000E+00 2.00000E+00
 -1       171 5.00000E-01 1.50000E+00 3.00000E+00
 -1       175 5.00000E-01 1.50000E+00 4.00000E+00
 -1       179 5.00000E-01 1.50000E+00 5.00000E+00
 -1       183 5.00000E-01 1.50000E+00 6.00000E+00
 -1       187 5.00000E-01 1.50000E+00 7.00000E+00
 -1       192 0.00000E+00 7.50000E-01 1.00000E+00
 -1       196 0.00000E+00 7.50000E-01 2.00000E+00
 -1       200 0.00000E+00 7.50000E-01 3.00000E+00
 -1       204 0.00000E+00 7.50000E-01 4.00000E+00
 -1       208 0.00000E+00 7.50000E-01 5.00000E+00
 -1       212 0.00000E+00 7.50000E-01 6.00000E+00
 -1       216 0.00000E+00 7.50000E-01 7.00000E+00
 -1       222 5.00000E-01 7.50000E-01 1.00000E+00
 -1       228 5.00000E-01 7.50000E-01 2.00000E+00
 -1       234 5.00000E-01 7.50000E-01 3.00000E+00
 -1       240 5.00000E-01 7.50000E-01 4.00000E+00
 -1       246 5.00000E-01 7.50000E-01 5.00000E+00
 -1       252 5.00000E-01 7.50000E-01 6.00000E+00
 -1       258 5.00000E-01 7.50000E-01 7.00000E+00
 -3
    3C                            32                                     1
 -1         1    1    0    1
 -2         1        10        95        19        61       105       222       192
 -1         2    1    0    1
 -2        10         2        13        95       105        34       134       222
 -1         3    1    0    1
 -2        19        95        16         4       192       222       163        79
 -1         4    1    0    1
 -2        95        13         3        16       222       134        64       163
 -1         5    1    0    1
 -2        61       105       222       192        59       109       228       196
 -1         6    1    0    1
 -2       105        34       134       222       109        36       138       228
 -1         7    1    0    1
 -2       192       222       163        79       196       228       167        81
 -1         8    1    0    1
 -2       222       134        64       163       228       138        66       167
 -1         9    1    0    1
 -2        59       109       228       196        57       113       234       200
 -1        10    1    0    1
 -2       109        36       138       228       113        38       142       234
 -1        11    1    0    1
 -2       196       228       167        81       200       234       171        83
 -1        12    1    0    1
 -2       228       138        66       167       234       142        68       171
 -1        13    1    0    1
 -2        57       113       234       200        55       117       240       204
 -1        14    1    0    1
 -2       113        38       142       234       117        40       146       240
 -1        15    1    0    1
 -2       200       234       171        83       204       240       175        85
 -1        16    1    0    1
 -2       234       142        68       171       240       146        70       175
 -1        17    1    0    1
 -2        55       117       240       204        53       121       246       208
 -1        18    1    0    1
 -2       117        40       146       240       121        42       150       246
 -1        19    1    0    1
 -2       204       240       175        85       208       246       179        87
 -1        20    1    0    1
 -2       240       146        70       175       246       150        72       179
 -1        21    1    0    1
 -2        53       121       246       208        51       125       252       212
 -1        22    1    0    1
 -2       121        42       150       246       125        44       154       252
 -1        23    1    0    1
 -2       208       246       179        87       212       252       183        89
 -1        24    1    0    1
 -2       246       150        72       179       252       154        74       183
 -1        25    1    0    1
 -2        51       125       252       212        49       129       258       216
 -1        26    1    0    1
 -2       125        44       154       252       129        46       158       258
 -1        27    1    0    1
 -2       212       252       183        89       216       258       187        91
 -1        28    1    0    1
 -2       252       154        74       183       258       158        76       187
 -1        29    1    0    1
 -2        49       129       258       216         5        22       100        31
 -1        30    1    0    1
 -2       129        46       158       258        22         6        25       100
 -1        31    1    0    1
 -2       216       258       187        91        31       100        28         8
 -1        32    1    0    1
 -2       258       158        76       187       100        25         7        28
 -3
    1PSTEP                         1           1           2          
  100CL  111 0.00000E+00          81                     3   11           1
 -4  NORM        4    1
 -5  NORMX       1    2    1    0
 -5  NORMY       1    2    2    0
 -5  NORMZ       1    2    3    0
 -5  ALL         1    2    0    0    1ALL
 -1         1 0.00000E+00 0.00000E+00 0.00000E+00
 -1         2 0.00000E+00 0.00000E+00 0.00000E+00
 -1         3 0.00000E+00 0.00000E+00 0.00000E+00
 -1         4 0.00000E+00 0.00000E+00 0.00000E+00
 -1         5-5.77350E-01-5.77350E-01 5.77350E-01
 -1         6 5.77350E-01-5.77350E-01 5.77350E-01
 -1         7 5.77350E-01 5.77350E-01 5.77350E-01
 -1         8-5.77350E-01 5.77350E-01 5.77350E-01
 -1        10 0.00000E+00 0.00000E+00 0.00000E+00
 -1        13 0.00000E+00 0.00000E+00 0.00000E+00
 -1        16 0.00000E+00 0.00000E+00 0.00000E+00
 -1        19 0.00000E+00 0.00000E+00 0.00000E+00
 -1        22 0.00000E+00-7.07107E-01 7.07107E-01
 -1        25 7.07107E-01 0.00000E+00 7.07107E-01
 -1        28 0.00000E+00 7.07107E-01 7.07107E-01
 -1        31-7.07107E-01 0.00000E+00 7.07107E-01
 -1        34 7.07107E-01-7.07107E-01 0.00000E+00
 -1        36 7.07107E-01-7.07107E-01 0.00000E+00
 -1        38 7.07107E-01-7.07107E-01 0.00000E+00
 -1        40 7.07107E-01-7.07107E-01 0.00000E+00
 -1        42 7.07107E-01-7.07107E-01 0.00000E+00
 -1        44 7.07107E-01-7.07107E-01 0.00000E+00
 -1        46 7.07107E-01-7.07107E-01 0.00000E+00
 -1        49-7.07107E-01-7.07107E-01 0.00000E+00
 -1        51-7.07107E-01-7.07107E-01 0.00000E+00
 -1        53-7.07107E-01-7.07107E-01 0.00000E+00
 -1        55-7.07107E-01-7.07107E-01 0.00000E+00
 -1        57-7.07107E-01-7.07107E-01 0.00000E+00
 -1        59-7.07107E-01-7.07107E-01 0.00000E+00
 -1        61-7.07107E-01-7.07107E-01 0.00000E+00
 -1        64 7.07107E-01 7.07107E-01 0.00000E+00
 -1        66 7.07107E-01 7.07107E-01 0.00000E+00
 -1        68 7.07107E-01 7.07107E-01 0.00000E+00
 -1        70 7.07107E-01 7.07107E-01 0.00000E+00
 -1        72 7.07107E-01 7.07107E-01 0.00000E+00
 -1        74 7.07107E-01 7.07107E-01 0.00000E+00
 -1        76 7.07107E-01 7.07107E-01 0.00000E+00
 -1        79-7.07107E-01 7.07107E-01 0.00000E+00
 -1        81-7.07107E-01 7.07107E-01 0.00000E+00
 -1        83-7.07107E-01 7.07107E-01 0.00000E+00
 -1        85-7.07107E-01 7.07107E-01 0.00000E+00
 -1        87-7.07107E-01 7.07107E-01 0.00000E+00
 -1        89-7.07107E-01 7.07107E-01 0.00000E+00
 -1        91-7.07107E-01 7.07107E-01 0.00000E+00
 -1        95 0.00000E+00 0.00000E+00 0.00000E+00
 -1       100 0.00000E+00 0.00000E+00 1.00000E+00
 -1       105 0.00000E+00-1.00000E+00 0.00000E+00
 -1       109 0.00000E+00-1.00000E+00 0.00000E+00
 -1       113 0.00000E+00-1.00000E+00 0.00000E+00
 -1       117 0.00000E+00-1.00000E+00 0.00000E+00
 -1       121 0.00000E+00-1.00000E+00 0.00000E+00
 -1       125 0.00000E+00-1.00000E+00 0.00000E+00
 -1       129 0.00000E+00-1.00000E+00 0.00000E+00
 -1       134 1.00000E+00 0.00000E+00 0.00000E+00
 -1       138 1.00000E+00 0.00000E+00 0.00000E+00
 -1       142 1.00000E+00 0.00000E+00 0.00000E+00
 -1       146 1.00000E+00 0.00000E+00 0.00000E+00
 -1       150 1.00000E+00 0.00000E+00 0.00000E+00
 -1       154 1.00000E+00 0.00000E+00 0.00000E+00
 -1       158 1.00000E+00 0.00000E+00 0.00000E+00
 -1       163 0.00000E+00 1.00000E+00 0.00000E+00
 -1       167 0.00000E+00 1.00000E+00 0.00000E+00
 -1       171 0.00000E+00 1.00000E+00 0.00000E+00
 -1       175 0.00000E+00 1.00000E+00 0.00000E+00
 -1       179 0.00000E+00 1.00000E+00 0.00000E+00
 -1       183 0.00000E+00 1.00000E+00 0.00000E+00
 -1       187 0.00000E+00 1.00000E+00 0.00000E+00
 -1       192-1.00000E+00 0.00000E+00 0.00000E+00
 -1       196-1.00000E+00 0.00000E+00 0.00000E+00
 -1       200-1.00000E+00 0.00000E+00 0.00000E+00
 -1       204-1.00000E+00 0.00000E+00 0.00000E+00
 -1       208-1.00000E+00 0.00000E+00 0.00000E+00
 -1       212-1.00000E+00 0.00000E+00 0.00000E+00
 -1       216-1.00000E+00 0.00000E+00 0.00000E+00
 -1       222 0.00000E+00 0.00000E+00 0.00000E+00
 -1       228 0.00000E+00 0.00000E+00 0.00000E+00
 -1       234 0.00000E+00 0.00000E+00 0.00000E+00
 -1       240 0.00000E+00 0.00000E+00 0.00000E+00
 -1       246 0.00000E+00 0.00000E+00 0.00000E+00
 -1       252 0.00000E+00 0.00000E+00 0.00000E+00
 -1       258 0.00000E+00 0.00000E+00 0.00000E+00
 -3
    1PSTEP                         2           1           2          
  100CL  112 15717.62535          81                     3   12           1
 -4  SENFREQ     2    1
 -5  DFDN        1    1    1    0
 -5  DFDNFIL     1    1    2    0
 -1         1 0.00000E+00 0.00000E+00
 -1         2 0.00000E+00 0.00000E+00
 -1         3 0.00000E+00 0.00000E+00
 -1         4 0.00000E+00 0.00000E+00
 -1         5 0.00000E+00 0.00000E+00
 -1         6 0.00000E+00 0.00000E+00
 -1         7 0.00000E+00 0.00000E+00
 -1         8 0.00000E+00 0.00000E+00
 -1        10 0.00000E+00 0.00000E+00
 -1        13 0.00000E+00 0.00000E+00
 -1        16 0.00000E+00 0.00000E+00
 -1        19 0.00000E+00 0.00000E+00
 -1        22 0.00000E+00 0.00000E+00
 -1        25 0.00000E+00 0.00000E+00
 -1        28 0.00000E+00 0.00000E+00
 -1        31 0.00000E+00 0.00000E+00
 -1        34 0.00000E+00 0.00000E+00
 -1        36 1.27126E+09 2.69724E-01
 -1        38 6.65027E+08 1.92509E-01
 -1        40 1.81687E+08 9.91658E-02
 -1        42-2.21959E+08 1.58224E-02
 -1        44-5.95250E+08-3.73521E-02
 -1        46 0.00000E+00 0.00000E+00
 -1        49 0.00000E+00 0.00000E+00
 -1        51-5.95253E+08-3.73522E-02
 -1        53-2.21962E+08 1.58223E-02
 -1        55 1.81686E+08 9.91657E-02
 -1        57 6.65026E+08 1.92509E-01
 -1        59 1.27126E+09 2.69724E-01
 -1        61 0.00000E+00 0.00000E+00
 -1        64 0.00000E+00 0.00000E+00
 -1        66 1.27126E+09 2.69724E-01
 -1        68 6.65027E+08 1.92509E-01
 -1        70 1.81686E+08 9.91657E-02
 -1        72-2.21960E+08 1.58224E-02
 -1        74-5.95249E+08-3.73520E-02
 -1        76 0.00000E+00 0.00000E+00
 -1        79 0.00000E+00 0.00000E+00
 -1        81 1.27126E+09 2.69724E-01
 -1        83 6.65027E+08 1.92509E-01
 -1        85 1.81686E+08 9.91657E-02
 -1        87-2.21960E+08 1.58224E-02
 -1        89-5.95253E+08-3.73521E-02
 -1        91 0.00000E+00 0.00000E+00
 -1        95 0.00000E+00 0.00000E+00
 -1       100 0.00000E+00 0.00000E+00
 -1       105 0.00000E+00 0.00000E+00
 -1       109 4.90464E+08 2.53492E-01
 -1       113 2.18549E+08 1.88316E-01
 -1       117-4.76012E+07 9.67169E-02
 -1       121-3.41688E+08 1.50576E-02
 -1       125-6.90149E+08-4.14563E-02
 -1       129 0.00000E+00 0.00000E+00
 -1       134 0.00000E+00 0.00000E+00
 -1       138 2.59632E+09 3.05581E-01
 -1       142 1.37319E+09 2.00683E-01
 -1       146 4.19684E+08 1.02730E-01
 -1       150-3.41095E+08 1.62763E-02
 -1       154-1.00683E+09-4.39039E-02
 -1       158 0.00000E+00 0.00000E+00
 -1       163 0.00000E+00 0.00000E+00
 -1       167 4.90464E+08 2.53492E-01
 -1       171 2.18549E+08 1.88316E-01
 -1       175-4.76016E+07 9.67169E-02
 -1       179-3.41687E+08 1.50577E-02
 -1       183-6.90146E+08-4.14561E-02
 -1       187 0.00000E+00 0.00000E+00
 -1       192 0.00000E+00 0.00000E+00
 -1       196 2.59632E+09 3.05581E-01
 -1       200 1.37319E+09 2.00683E-01
 -1       204 4.19684E+08 1.02730E-01
 -1       208-3.41099E+08 1.62762E-02
 -1       212-1.00683E+09-4.39039E-02
 -1       216 0.00000E+00 0.00000E+00
 -1       222 0.00000E+00 0.00000E+00
 -1       228 0.00000E+00 0.00000E+00
 -1       234 0.00000E+00 0.00000E+00
 -1       240 0.00000E+00 0.00000E+00
 -1       246 0.00000E+00 0.00000E+00
 -1       252 0.00000E+00 0.00000E+00
 -1       258 0.00000E+00 0.00000E+00
 -3
    1PSTEP                         3           1           2          
  100CL  113 21366.30468          81                     3   13           1
 -4  SENFREQ     2    1
 -5  DFDN        1    1    1    0
 -5  DFDNFIL     1    1    2    0
 -1         1 0.00000E+00 0.00000E+00
 -1         2 0.00000E+00 0.00000E+00
 -1         3 0.00000E+00 0.00000E+00
 -1         4 0.00000E+00 0.00000E+00
 -1         5 0.00000E+00 0.00000E+00
 -1         6 0.00000E+00 0.00000E+00
 -1         7 0.00000E+00 0.00000E+00
 -1         8 0.00000E+00 0.00000E+00
 -1        10 0.00000E+00 0.00000E+00
 -1        13 0.00000E+00 0.00000E+00
 -1        16 0.00000E+00 0.00000E+00
 -1        19 0.00000E+00 0.00000E+00
 -1        22 0.00000E+00 0.00000E+00
 -1        25 0.00000E+00 0.00000E+00
 -1        28 0.00000E+00 0.00000E+00
 -1        31 0.00000E+00 0.00000E+00
 -1        34 0.00000E+00 0.00000E+00
 -1        36 2.26395E+09 2.79396E-01
 -1        38 1.17622E+09 1.89585E-01
 -1        40 3.11152E+08 8.91049E-02
 -1        42-4.19948E+08-1.85644E-03
 -1        44-1.10162E+09-6.13352E-02
 -1        46 0.00000E+00 0.00000E+00
 -1        49 0.00000E+00 0.00000E+00
 -1        51-1.10162E+09-6.13353E-02
 -1        53-4.19948E+08-1.85646E-03
 -1        55 3.11152E+08 8.91049E-02
 -1        57 1.17622E+09 1.89585E-01
 -1        59 2.26395E+09 2.79396E-01
 -1        61 0.00000E+00 0.00000E+00
 -1        64 0.00000E+00 0.00000E+00
 -1        66 2.26395E+09 2.79396E-01
 -1        68 1.17622E+09 1.89585E-01
 -1        70 3.11152E+08 8.91049E-02
 -1        72-4.19949E+08-1.85644E-03
 -1        74-1.10162E+09-6.13352E-02
 -1        76 0.00000E+00 0.00000E+00
 -1        79 0.00000E+00 0.00000E+00
 -1        81 2.26395E+09 2.79396E-01
 -1        83 1.17622E+09 1.89585E-01
 -1        85 3.11152E+08 8.91049E-02
 -1        87-4.19949E+08-1.85647E-03
 -1        89-1.10162E+09-6.13353E-02
 -1        91 0.00000E+00 0.00000E+00
 -1        95 0.00000E+00 0.00000E+00
 -1       100 0.00000E+00 0.00000E+00
 -1       105 0.00000E+00 0.00000E+00
 -1       109 3.52697E+09 3.08370E-01
 -1       113 1.87023E+09 1.95266E-01
 -1       117 6.00476E+08 9.20885E-02
 -1       121-3.95603E+08-8.96511E-04
 -1       125-1.24079E+09-6.56124E-02
 -1       129 0.00000E+00 0.00000E+00
 -1       134 0.00000E+00 0.00000E+00
 -1       138 1.18102E+09 2.41833E-01
 -1       142 5.06474E+08 1.79557E-01
 -1       146-1.76718E+08 8.35480E-02
 -1       150-9.59764E+08-4.60480E-03
 -1       154-1.90532E+09-6.96276E-02
 -1       158 0.00000E+00 0.00000E+00
 -1       163 0.00000E+00 0.00000E+00
 -1       167 3.52697E+09 3.08370E-01
 -1       171 1.87023E+09 1.95266E-01
 -1       175 6.00477E+08 9.20885E-02
 -1       179-3.95602E+08-8.96508E-04
 -1       183-1.24079E+09-6.56124E-02
 -1       187 0.00000E+00 0.00000E+00
 -1       192 0.00000E+00 0.00000E+00
 -1       196 1.18102E+09 2.41833E-01
 -1       200 5.06473E+08 1.79557E-01
 -1       204-1.76718E+08 8.35479E-02
 -1       208-9.59767E+08-4.60487E-03
 -1       212-1.90532E+09-6.96278E-02
 -1       216 0.00000E+00 0.00000E+00
 -1       222 0.00000E+00 0.00000E+00
 -1       228 0.00000E+00 0.00000E+00
 -1       234 0.00000E+00 0.00000E+00
 -1       240 0.00000E+00 0.00000E+00
 -1       246 0.00000E+00 0.00000E+00
 -1       252 0.00000E+00 0.00000E+00
 -1       258 0.00000E+00 0.00000E+00
 -3
    1PSTEP                         4           1           2          
  100CL  114 93946.12418          81                     3   14           1
 -4  SENFREQ     2    1
 -5  DFDN        1    1    1    0
 -5  DFDNFIL     1    1    2    0
 -1         1 0.00000E+00 0.00000E+00
 -1         2 0.00000E+00 0.00000E+00
 -1         3 0.00000E+00 0.00000E+00
 -1         4 0.00000E+00 0.00000E+00
 -1         5 0.00000E+00 0.00000E+00
 -1         6 0.00000E+00 0.00000E+00
 -1         7 0.00000E+00 0.00000E+00
 -1         8 0.00000E+00 0.00000E+00
 -1        10 0.00000E+00 0.00000E+00
 -1        13 0.00000E+00 0.00000E+00
 -1        16 0.00000E+00 0.00000E+00
 -1        19 0.00000E+00 0.00000E+00
 -1        22 0.00000E+00 0.00000E+00
 -1        25 0.00000E+00 0.00000E+00
 -1        28 0.00000E+00 0.00000E+00
 -1        31 0.00000E+00 0.00000E+00
 -1        34 0.00000E+00 0.00000E+00
 -1        36 4.21016E+10 2.46985E-01
 -1        38 2.38875E+10 1.60507E-01
 -1        40 1.92197E+09 4.01262E-02
 -1        42-2.01146E+10-7.87736E-02
 -1        44-3.88492E+10-1.65320E-01
 -1        46 0.00000E+00 0.00000E+00
 -1        49 0.00000E+00 0.00000E+00
 -1        51-3.88492E+10-1.65320E-01
 -1        53-2.01146E+10-7.87736E-02
 -1        55 1.92197E+09 4.01262E-02
 -1        57 2.38875E+10 1.60507E-01
 -1        59 4.21016E+10 2.46985E-01
 -1        61 0.00000E+00 0.00000E+00
 -1        64 0.00000E+00 0.00000E+00
 -1        66 4.21016E+10 2.46985E-01
 -1        68 2.38875E+10 1.60507E-01
 -1        70 1.92197E+09 4.01262E-02
 -1        72-2.01146E+10-7.87736E-02
 -1        74-3.88492E+10-1.65319E-01
 -1        76 0.00000E+00 0.00000E+00
 -1        79 0.00000E+00 0.00000E+00
 -1        81 4.21016E+10 2.46985E-01
 -1        83 2.38875E+10 1.60507E-01
 -1        85 1.92198E+09 4.01262E-02
 -1        87-2.01146E+10-7.87736E-02
 -1        89-3.88492E+10-1.65320E-01
 -1        91 0.00000E+00 0.00000E+00
 -1        95 0.00000E+00 0.00000E+00
 -1       100 0.00000E+00 0.00000E+00
 -1       105 0.00000E+00 0.00000E+00
 -1       109 1.67508E+10 2.30832E-01
 -1       113 2.51156E+09 1.53414E-01
 -1       117-1.60385E+10 3.26181E-02
 -1       121-3.46270E+10-8.53663E-02
 -1       125-5.04333E+10-1.81443E-01
 -1       129 0.00000E+00 0.00000E+00
 -1       134 0.00000E+00 0.00000E+00
 -1       138 8.29626E+10 2.81304E-01
 -1       142 5.74151E+10 1.74439E-01
 -1       146 2.64205E+10 5.30799E-02
 -1       150-4.47013E+09-6.76066E-02
 -1       154-3.07164E+10-1.45392E-01
 -1       158 0.00000E+00 0.00000E+00
 -1       163 0.00000E+00 0.00000E+00
 -1       167 1.67508E+10 2.30832E-01
 -1       171 2.51156E+09 1.53414E-01
 -1       175-1.60385E+10 3.26181E-02
 -1       179-3.46270E+10-8.53663E-02
 -1       183-5.04333E+10-1.81443E-01
 -1       187 0.00000E+00 0.00000E+00
 -1       192 0.00000E+00 0.00000E+00
 -1       196 8.29626E+10 2.81304E-01
 -1       200 5.74151E+10 1.74439E-01
 -1       204 2.64205E+10 5.30799E-02
 -1       208-4.47014E+09-6.76066E-02
 -1       212-3.07164E+10-1.45392E-01
 -1       216 0.00000E+00 0.00000E+00
 -1       222 0.00000E+00 0.00000E+00
 -1       228 0.00000E+00 0.00000E+00
 -1       234 0.00000E+00 0.00000E+00
 -1       240 0.00000E+00 0.00000E+00
 -1       246 0.00000E+00 0.00000E+00
 -1       252 0.00000E+00 0.00000E+00
 -1       258 0.00000E+00 0.00000E+00
 -3
    1PSTEP                         5           1           2          
  100CL  115 94079.45572          81                     3   15           1
 -4  SENFREQ     2    1
 -5  DFDN        1    1    1    0
 -5  DFDNFIL     1    1    2    0
 -1         1 0.00000E+00 0.00000E+00
 -1         2 0.00000E+00 0.00000E+00
 -1         3 0.00000E+00 0.00000E+00
 -1         4 0.00000E+00 0.00000E+00
 -1         5 0.00000E+00 0.00000E+00
 -1         6 0.00000E+00 0.00000E+00
 -1         7 0.00000E+00 0.00000E+00
 -1         8 0.00000E+00 0.00000E+00
 -1        10 0.00000E+00 0.00000E+00
 -1        13 0.00000E+00 0.00000E+00
 -1        16 0.00000E+00 0.00000E+00
 -1        19 0.00000E+00 0.00000E+00
 -1        22 0.00000E+00 0.00000E+00
 -1        25 0.00000E+00 0.00000E+00
 -1        28 0.00000E+00 0.00000E+00
 -1        31 0.00000E+00 0.00000E+00
 -1        34 0.00000E+00 0.00000E+00
 -1        36-3.88458E+09 9.17179E-02
 -1        38 5.73841E+09 1.15426E-01
 -1        40 2.12198E+10 1.58328E-01
 -1        42 2.47069E+10 1.89005E-01
 -1        44 1.38808E+10 2.01729E-01
 -1        46 0.00000E+00 0.00000E+00
 -1        49 0.00000E+00 0.00000E+00
 -1        51 1.38808E+10 2.01729E-01
 -1        53 2.47069E+10 1.89005E-01
 -1        55 2.12198E+10 1.58328E-01
 -1        57 5.73841E+09 1.15426E-01
 -1        59-3.88458E+09 9.17179E-02
 -1        61 0.00000E+00 0.00000E+00
 -1        64 0.00000E+00 0.00000E+00
 -1        66-3.88458E+09 9.17179E-02
 -1        68 5.73841E+09 1.15426E-01
 -1        70 2.12198E+10 1.58328E-01
 -1        72 2.47069E+10 1.89005E-01
 -1        74 1.38808E+10 2.01729E-01
 -1        76 0.00000E+00 0.00000E+00
 -1        79 0.00000E+00 0.00000E+00
 -1        81-3.88458E+09 9.17179E-02
 -1        83 5.73841E+09 1.15426E-01
 -1        85 2.12198E+10 1.58328E-01
 -1        87 2.47069E+10 1.89005E-01
 -1        89 1.38808E+10 2.01729E-01
 -1        91 0.00000E+00 0.00000E+00
 -1        95 0.00000E+00 0.00000E+00
 -1       100 0.00000E+00 0.00000E+00
 -1       105 0.00000E+00 0.00000E+00
 -1       109-5.28780E+09 9.14652E-02
 -1       113-1.23642E+10 1.09373E-01
 -1       117-1.00146E+10 1.47660E-01
 -1       121-6.74915E+08 1.80814E-01
 -1       125 4.56241E+09 1.96522E-01
 -1       129 0.00000E+00 0.00000E+00
 -1       134 0.00000E+00 0.00000E+00
 -1       138-8.81771E+09 8.82982E-02
 -1       142 1.92336E+10 1.23210E-01
 -1       146 5.44611E+10 1.74515E-01
 -1       150 5.69523E+10 2.03154E-01
 -1       154 2.84037E+10 2.13092E-01
 -1       158 0.00000E+00 0.00000E+00
 -1       163 0.00000E+00 0.00000E+00
 -1       167-5.28780E+09 9.14652E-02
 -1       171-1.23642E+10 1.09373E-01
 -1       175-1.00146E+10 1.47660E-01
 -1       179-6.74912E+08 1.80814E-01
 -1       183 4.56241E+09 1.96522E-01
 -1       187 0.00000E+00 0.00000E+00
 -1       192 0.00000E+00 0.00000E+00
 -1       196-8.81771E+09 8.82982E-02
 -1       200 1.92336E+10 1.23210E-01
 -1       204 5.44611E+10 1.74515E-01
 -1       208 5.69523E+10 2.03154E-01
 -1       212 2.84037E+10 2.13092E-01
 -1       216 0.00000E+00 0.00000E+00
 -1       222 0.00000E+00 0.00000E+00
 -1       228 0.00000E+00 0.00000E+00
 -1       234 0.00000E+00 0.00000E+00
 -1       240 0.00000E+00 0.00000E+00
 -1       246 0.00000E+00 0.00000E+00
 -1       252 0.00000E+00 0.00000E+00
 -1       258 0.00000E+00 0.00000E+00
 -3
    1PSTEP                         6           1           2          
  100CL  116 119778.3087          81                     3   16           1
 -4  SENFREQ     2    1
 -5  DFDN        1    1    1    0
 -5  DFDNFIL     1    1    2    0
 -1         1 0.00000E+00 0.00000E+00
 -1         2 0.00000E+00 0.00000E+00
 -1         3 0.00000E+00 0.00000E+00
 -1         4 0.00000E+00 0.00000E+00
 -1         5 0.00000E+00 0.00000E+00
 -1         6 0.00000E+00 0.00000E+00
 -1         7 0.00000E+00 0.00000E+00
 -1         8 0.00000E+00 0.00000E+00
 -1        10 0.00000E+00 0.00000E+00
 -1        13 0.00000E+00 0.00000E+00
 -1        16 0.00000E+00 0.00000E+00
 -1        19 0.00000E+00 0.00000E+00
 -1        22 0.00000E+00 0.00000E+00
 -1        25 0.00000E+00 0.00000E+00
 -1        28 0.00000E+00 0.00000E+00
 -1        31 0.00000E+00 0.00000E+00
 -1        34 0.00000E+00 0.00000E+00
 -1        36-3.80852E+09 8.24187E-02
 -1        38 6.62169E+09 1.09581E-01
 -1        40 2.69326E+10 1.60230E-01
 -1        42 3.28048E+10 1.96453E-01
 -1        44 1.82228E+10 2.10666E-01
 -1        46 0.00000E+00 0.00000E+00
 -1        49 0.00000E+00 0.00000E+00
 -1        51 1.82228E+10 2.10666E-01
 -1        53 3.28048E+10 1.96453E-01
 -1        55 2.69326E+10 1.60230E-01
 -1        57 6.62169E+09 1.09581E-01
 -1        59-3.80852E+09 8.24187E-02
 -1        61 0.00000E+00 0.00000E+00
 -1        64 0.00000E+00 0.00000E+00
 -1        66-3.80852E+09 8.24187E-02
 -1        68 6.62169E+09 1.09581E-01
 -1        70 2.69326E+10 1.60230E-01
 -1        72 3.28048E+10 1.96453E-01
 -1        74 1.82228E+10 2.10666E-01
 -1        76 0.00000E+00 0.00000E+00
 -1        79 0.00000E+00 0.00000E+00
 -1        81-3.80852E+09 8.24187E-02
 -1        83 6.62169E+09 1.09581E-01
 -1        85 2.69326E+10 1.60230E-01
 -1        87 3.28048E+10 1.96453E-01
 -1        89 1.82228E+10 2.10666E-01
 -1        91 0.00000E+00 0.00000E+00
 -1        95 0.00000E+00 0.00000E+00
 -1       100 0.00000E+00 0.00000E+00
 -1       105 0.00000E+00 0.00000E+00
 -1       109-5.90385E+09 8.04211E-02
 -1       113 2.49616E+10 1.17883E-01
 -1       117 6.20526E+10 1.76024E-01
 -1       121 6.24771E+10 2.09642E-01
 -1       125 2.85092E+10 2.20015E-01
 -1       129 0.00000E+00 0.00000E+00
 -1       134 0.00000E+00 0.00000E+00
 -1       138-1.02222E+10 8.01132E-02
 -1       142-3.20647E+10 9.20375E-02
 -1       146-2.93666E+10 1.31080E-01
 -1       150-6.42255E+09 1.74353E-01
 -1       154 8.19692E+09 1.97302E-01
 -1       158 0.00000E+00 0.00000E+00
 -1       163 0.00000E+00 0.00000E+00
 -1       167-5.90385E+09 8.04211E-02
 -1       171 2.49616E+10 1.17883E-01
 -1       175 6.20527E+10 1.76024E-01
 -1       179 6.24771E+10 2.09642E-01
 -1       183 2.85092E+10 2.20015E-01
 -1       187 0.00000E+00 0.00000E+00
 -1       192 0.00000E+00 0.00000E+00
 -1       196-1.02222E+10 8.01132E-02
 -1       200-3.20647E+10 9.20375E-02
 -1       204-2.93666E+10 1.31080E-01
 -1       208-6.42255E+09 1.74353E-01
 -1       212 8.19692E+09 1.97302E-01
 -1       216 0.00000E+00 0.00000E+00
 -1       222 0.00000E+00 0.00000E+00
 -1       228 0.00000E+00 0.00000E+00
 -1       234 0.00000E+00 0.00000E+00
 -1       240 0.00000E+00 0.00000E+00
 -1       246 0.00000E+00 0.00000E+00
 -1       252 0.00000E+00 0.00000E+00
 -1       258 0.00000E+00 0.00000E+00
 -3
    1PSTEP                         7           1           2          
  100CL  117 164426.6391          81                     3   17           1
 -4  SENFREQ     2    1
 -5  DFDN        1    1    1    0
 -5  DFDNFIL     1    1    2    0
 -1         1 0.00000E+00 0.00000E+00
 -1         2 0.00000E+00 0.00000E+00
 -1         3 0.00000E+00 0.00000E+00