    1C
    1UUSER                                                              
    1UDATE              06.march.2020                                   
    1UTIME              14:37:57                                        
    1UHOST                                                              
    1UPGM               CalculiX                                        
    1UVERSION           Version DEVELOPMENT                             
    1UCOMPILETIME       Tue Mar  3 17:58:03 CET 2020                    
    1UDIR                                                               
    1UDBN                                                               
    1UMAT    1ALUM                                                      
    2C                            16                                     1
 -1         4 8.83883E-02-1.25000E-01-8.83883E-02
 -1         5 8.83883E-02 1.25000E-01-8.83883E-02
 -1         6-8.83883E-02 1.25000E-01 8.83883E-02
 -1         7-8.83883E-02-1.25000E-01 8.83883E-02
 -1        13 5.08839E+00-1.25000E-01 4.91161E+00
 -1        14 5.08839E+00 1.25000E-01 4.91161E+00
 -1        15 4.91161E+00 1.25000E-01 5.08839E+00
 -1        16 4.91161E+00-1.25000E-01 5.08839E+00
 -1        22 5.08839E+00-1.25000E-01 5.08839E+00
 -1        23 5.08839E+00 1.25000E-01 5.08839E+00
 -1        24 4.91161E+00 1.25000E-01 4.91161E+00
 -1        25 4.91161E+00-1.25000E-01 4.91161E+00
 -1        31 8.83883E-02-1.25000E-01 1.00884E+01
 -1        32 8.83883E-02 1.25000E-01 1.00884E+01
 -1        33-8.83883E-02 1.25000E-01 9.91161E+00
 -1        34-8.83883E-02-1.25000E-01 9.91161E+00
 -3
    3C                             2                                     1
 -1         1    1    0    1
 -2         4        13        14         5         7        16        15         6
 -1         2    1    0    1
 -2        22        31        32        23        25        34        33        24
 -3
    1PSTEP                         1           1           1          
  100CL  101 1.000000000          16                     0    1           1
 -4  DISP        4    1
 -5  D1          1    2    1    0
 -5  D2          1    2    2    0
 -5  D3          1    2    3    0
 -5  ALL         1    2    0    0    1ALL
 -1         4-1.30000E-07 4.24264E-08-7.00000E-08
 -1         5-1.30000E-07-4.24264E-08-7.00000E-08
 -1         6 1.30000E-07-4.24264E-08 7.00000E-08
 -1         7 1.30000E-07 4.24264E-08 7.00000E-08
 -1        13 1.11837E-05 4.24264E-08-7.00000E-08
 -1        14 1.11837E-05-4.24264E-08-7.00000E-08
 -1        15 1.14437E-05-4.24264E-08 7.00000E-08
 -1        16 1.14437E-05 4.24264E-08 7.00000E-08
 -1        22 1.11837E-05 4.24264E-08 7.00000E-08
 -1        23 1.11837E-05-4.24264E-08 7.00000E-08
 -1        24 1.14437E-05-4.24264E-08-7.00000E-08
 -1        25 1.14437E-05 4.24264E-08-7.00000E-08
 -1        31-1.30000E-07 4.24264E-08 7.00000E-08
 -1        32-1.30000E-07-4.24264E-08 7.00000E-08
 -1        33 1.30000E-07-4.24264E-08-7.00000E-08
 -1        34 1.30000E-07 4.24264E-08-7.00000E-08
 -3
    1PSTEP                         2           1           1          
  100CL  101 1.000000000          16                     0    1           1
 -4  STRESS      6    1
 -5  SXX         1    4    1    1
 -5  SYY         1    4    2    2
 -5  SZZ         1    4    3    3
 -5  SXY         1    4    1    2
 -5  SYZ         1    4    2    3
 -5  SZX         1    4    3    1
 -1         4 5.65663E+00 2.60295E-13 5.65663E+00 1.70062E-13-3.74650E-14 5.65663E+00
 -1         5 5.65663E+00 4.27169E-13 5.65663E+00 1.99161E-13-1.27038E-13 5.65663E+00
 -1         6 5.65663E+00-4.67436E-14 5.65663E+00-1.04579E-13-1.92976E-13 5.65663E+00
 -1         7 5.65663E+00-2.18824E-13 5.65663E+00-1.66814E-13-1.06795E-13 5.65663E+00
 -1        13 5.65663E+00-7.98180E-14 5.65663E+00-9.82610E-14 1.32814E-13 5.65663E+00
 -1        14 5.65663E+00-2.08825E-13 5.65663E+00-1.36536E-13 1.23407E-13 5.65663E+00
 -1        15 5.65663E+00-3.38896E-13 5.65663E+00-4.36724E-13-2.87111E-13 5.65663E+00
 -1        16 5.65663E+00-1.27410E-13 5.65663E+00-3.53907E-13-2.80038E-13 5.65663E+00
 -1        22 5.65663E+00 2.21125E-13 5.65663E+00-1.36050E-13-6.47774E-14-5.65663E+00
 -1        23 5.65663E+00-1.46319E-13 5.65663E+00-7.04655E-14-1.68620E-14-5.65663E+00
 -1        24 5.65663E+00-1.90254E-13 5.65663E+00 2.14815E-13 3.78848E-14-5.65663E+00
 -1        25 5.65663E+00 1.16551E-13 5.65663E+00 2.00644E-13-1.14235E-14-5.65663E+00
 -1        31 5.65663E+00-1.72562E-13 5.65663E+00-1.27169E-14 1.00206E-13-5.65663E+00
 -1        32 5.65663E+00 5.88620E-14 5.65663E+00-3.26171E-15 1.03597E-13-5.65663E+00
 -1        33 5.65663E+00 1.83435E-13 5.65663E+00-4.94834E-14-7.66542E-14-5.65663E+00
 -1        34 5.65663E+00-4.86335E-14 5.65663E+00-5.80597E-14-8.06278E-14-5.65663E+00
 -3
 9999
