
                        S T E P       2


                                INCREMENT     2


 stresses (elem, integ.pnt.,sxx,syy,szz,sxy,sxz,syz) for set EALL and time  0.2000000E+01

         1   1  1.262780E+04 -1.919262E+02 -1.951361E+02  2.745695E+03  2.737987E+03 -7.906955E+01
         1   2  1.313956E+04  6.661171E+02  6.659729E+02 -4.325608E-02 -6.965428E+00 -7.753637E+01
         1   3  1.262166E+04 -1.919261E+02 -1.890044E+02 -2.745782E+03 -2.752302E+03 -7.600301E+01
         1   4  1.204683E+04 -4.243131E+02 -3.887919E+02 -4.807625E-07  2.738204E+03  1.741113E-06
         1   5  1.255859E+04  4.337304E+02  4.723172E+02  1.713490E-07 -6.749146E+00  4.802152E-06
         1   6  1.204070E+04 -4.243130E+02 -3.826601E+02  8.248409E-07 -2.752085E+03  3.111436E-06
         1   7  1.262780E+04 -1.919262E+02 -1.951361E+02 -2.745695E+03  2.737987E+03  7.906955E+01
         1   8  1.313956E+04  6.661171E+02  6.659729E+02  4.325646E-02 -6.965427E+00  7.753638E+01
         1   9  1.262166E+04 -1.919261E+02 -1.890044E+02  2.745782E+03 -2.752302E+03  7.600301E+01
         1  10  1.203902E+04 -3.856559E+02 -4.243825E+02  2.745739E+03 -7.552490E+00 -1.607354E+00
         1  11  1.255385E+04  4.723874E+02  4.336602E+02  1.730959E-08 -6.768127E+00 -7.408211E-02
         1  12  1.203902E+04 -3.856559E+02 -4.243838E+02 -2.745739E+03 -6.367080E+00  1.459182E+00
         1  13  1.145805E+04 -6.180428E+02 -6.180383E+02  7.385917E-07 -7.336209E+00  1.555105E-06
         1  14  1.197288E+04  2.400007E+02  2.400045E+02  6.458374E-08 -6.551845E+00  3.945048E-06
         1  15  1.145806E+04 -6.180428E+02 -6.180396E+02 -6.016859E-07 -6.150798E+00  1.565721E-06
         1  16  1.203902E+04 -3.856559E+02 -4.243825E+02 -2.745739E+03 -7.552492E+00  1.607357E+00
         1  17  1.255385E+04  4.723874E+02  4.336601E+02  1.485137E-08 -6.768126E+00  7.408908E-02
         1  18  1.203902E+04 -3.856559E+02 -4.243838E+02  2.745739E+03 -6.367079E+00 -1.459180E+00
         1  19  1.261218E+04 -1.920743E+02 -1.888549E+02  2.745782E+03 -2.753482E+03  7.585484E+01
         1  20  1.313007E+04  6.659689E+02  6.661211E+02  4.325603E-02 -6.960132E+00  7.738820E+01
         1  21  1.261831E+04 -1.920743E+02 -1.949893E+02 -2.745695E+03  2.739178E+03  7.892137E+01
         1  22  1.203121E+04 -4.244612E+02 -3.825107E+02  1.886919E-06 -2.753265E+03  1.325647E-06
         1  23  1.254911E+04  4.335822E+02  4.724654E+02 -1.197023E-07 -6.743851E+00  3.017653E-06
         1  24  1.203735E+04 -4.244612E+02 -3.886450E+02 -2.119752E-06  2.739394E+03 -7.068056E-09
         1  25  1.261218E+04 -1.920743E+02 -1.888549E+02 -2.745782E+03 -2.753482E+03 -7.585484E+01
         1  26  1.313007E+04  6.659689E+02  6.661211E+02 -4.325642E-02 -6.960132E+00 -7.738820E+01
         1  27  1.261831E+04 -1.920743E+02 -1.949893E+02  2.745695E+03  2.739178E+03 -7.892137E+01
         2   1  1.262712E+04 -1.919263E+02 -1.944566E+02  2.745705E+03  2.739578E+03 -7.872881E+01
         2   2  1.313956E+04  6.661169E+02  6.659711E+02 -3.364208E-02 -5.417556E+00 -7.753634E+01
         2   3  1.262235E+04 -1.919262E+02 -1.896874E+02 -2.745772E+03 -2.750712E+03 -7.634370E+01
         2   4  1.204615E+04 -4.243131E+02 -3.881123E+02 -2.179082E-07  2.739747E+03  1.114258E-05
         2   5  1.255859E+04  4.337302E+02  4.723155E+02  1.625199E-06 -5.249336E+00  3.229367E-05
         2   6  1.204138E+04 -4.243131E+02 -3.833432E+02  3.473912E-06 -2.750543E+03  3.771457E-05
         2   7  1.262712E+04 -1.919263E+02 -1.944566E+02 -2.745705E+03  2.739578E+03  7.872883E+01
         2   8  1.313956E+04  6.661169E+02  6.659711E+02  3.364501E-02 -5.417554E+00  7.753639E+01
         2   9  1.262235E+04 -1.919263E+02 -1.896875E+02  2.745772E+03 -2.750712E+03  7.634375E+01
         2  10  1.203902E+04 -3.856560E+02 -4.243843E+02  2.745739E+03 -6.005871E+00 -1.266626E+00
         2  11  1.255385E+04  4.723873E+02  4.336585E+02  5.443100E-07 -5.264100E+00 -7.408195E-02
         2  12  1.203902E+04 -3.856559E+02 -4.243853E+02 -2.745739E+03 -4.820464E+00  1.118434E+00
         2  13  1.145806E+04 -6.180429E+02 -6.180401E+02  3.761781E-06 -5.837653E+00  5.162440E-06
         2  14  1.197288E+04  2.400005E+02  2.400028E+02  1.396405E-06 -5.095880E+00  1.334971E-05
         2  15  1.145806E+04 -6.180429E+02 -6.180411E+02 -9.725846E-07 -4.652242E+00  5.535322E-06
         2  16  1.203902E+04 -3.856560E+02 -4.243844E+02 -2.745739E+03 -6.005874E+00  1.266632E+00
         2  17  1.255385E+04  4.723872E+02  4.336584E+02  5.578515E-07 -5.264098E+00  7.409293E-02
         2  18  1.203902E+04 -3.856561E+02 -4.243854E+02  2.745739E+03 -4.820457E+00 -1.118449E+00
         2  19  1.261286E+04 -1.920744E+02 -1.895382E+02  2.745772E+03 -2.751893E+03  7.619556E+01
         2  20  1.313007E+04  6.659689E+02  6.661194E+02  3.364029E-02 -5.413437E+00  7.738817E+01
         2  21  1.261763E+04 -1.920742E+02 -1.943093E+02 -2.745705E+03  2.740768E+03  7.858057E+01
         2  22  1.203190E+04 -4.244613E+02 -3.831940E+02  6.078605E-06 -2.751725E+03 -5.192414E-07
         2  23  1.254911E+04  4.335820E+02  4.724637E+02 -4.882596E-07 -5.245217E+00 -5.786186E-06
         2  24  1.203667E+04 -4.244612E+02 -3.879651E+02 -7.066889E-06  2.740936E+03 -2.722117E-05
         2  25  1.261286E+04 -1.920745E+02 -1.895383E+02 -2.745772E+03 -2.751893E+03 -7.619556E+01
         2  26  1.313007E+04  6.659686E+02  6.661192E+02 -3.364427E-02 -5.413435E+00 -7.738820E+01
         2  27  1.261763E+04 -1.920746E+02 -1.943095E+02  2.745705E+03  2.740768E+03 -7.858065E+01
         3   1  1.262644E+04 -1.919262E+02 -1.937764E+02  2.745715E+03  2.741169E+03 -7.838806E+01
         3   2  1.313956E+04  6.661169E+02  6.659699E+02 -2.403293E-02 -3.869681E+00 -7.753635E+01
         3   3  1.262303E+04 -1.919262E+02 -1.903699E+02 -2.745763E+03 -2.749122E+03 -7.668446E+01
         3   4  1.204547E+04 -4.243131E+02 -3.874321E+02 -2.684474E-06  2.741289E+03  3.575757E-05
         3   5  1.255859E+04  4.337302E+02  4.723143E+02 -1.656883E-06 -3.749526E+00  2.669244E-05
         3   6  1.204206E+04 -4.243131E+02 -3.840256E+02 -6.367092E-07 -2.749001E+03  6.753453E-06
         3   7  1.262644E+04 -1.919263E+02 -1.937765E+02 -2.745715E+03  2.741169E+03  7.838811E+01
         3   8  1.313956E+04  6.661169E+02  6.659699E+02  2.403001E-02 -3.869683E+00  7.753638E+01
         3   9  1.262303E+04 -1.919262E+02 -1.903699E+02  2.745763E+03 -2.749122E+03  7.668447E+01
         3  10  1.203902E+04 -3.856559E+02 -4.243856E+02  2.745739E+03 -4.459251E+00 -9.259266E-01
         3  11  1.255385E+04  4.723873E+02  4.336573E+02 -6.037376E-07 -3.760070E+00 -7.408851E-02
         3  12  1.203902E+04 -3.856560E+02 -4.243864E+02 -2.745739E+03 -3.273842E+00  7.777305E-01
         3  13  1.145806E+04 -6.180428E+02 -6.180413E+02  3.681036E-08 -4.339097E+00  3.686319E-06
         3  14  1.197288E+04  2.400005E+02  2.400017E+02 -1.516731E-06 -3.639914E+00  9.071589E-06
         3  15  1.145806E+04 -6.180428E+02 -6.180420E+02 -3.065507E-06 -3.153686E+00  3.504181E-06
         3  16  1.203902E+04 -3.856561E+02 -4.243857E+02 -2.745739E+03 -4.459256E+00  9.259079E-01
         3  17  1.255385E+04  4.723872E+02  4.336573E+02 -6.060249E-07 -3.760072E+00  7.409278E-02
         3  18  1.203902E+04 -3.856560E+02 -4.243864E+02  2.745739E+03 -3.273842E+00 -7.777260E-01
         3  19  1.261355E+04 -1.920741E+02 -1.902209E+02  2.745763E+03 -2.750304E+03  7.653621E+01
         3  20  1.313007E+04  6.659689E+02  6.661182E+02  2.403496E-02 -3.866739E+00  7.738817E+01
         3  21  1.261695E+04 -1.920744E+02 -1.936290E+02 -2.745715E+03  2.742358E+03  7.823992E+01
         3  22  1.203258E+04 -4.244612E+02 -3.838766E+02  4.573726E-06 -2.750184E+03 -2.887588E-05
         3  23  1.254911E+04  4.335820E+02  4.724625E+02  4.295435E-07 -3.746584E+00 -8.970162E-06
         3  24  1.203599E+04 -4.244613E+02 -3.872847E+02 -3.701327E-06  2.742478E+03 -8.362940E-09
         3  25  1.261354E+04 -1.920745E+02 -1.902211E+02 -2.745763E+03 -2.750304E+03 -7.653629E+01
         3  26  1.313007E+04  6.659686E+02  6.661181E+02 -2.403084E-02 -3.866741E+00 -7.738820E+01
         3  27  1.261695E+04 -1.920745E+02 -1.936290E+02  2.745715E+03  2.742358E+03 -7.823992E+01
         4   1  1.262575E+04 -1.919263E+02 -1.930959E+02  2.745724E+03  2.742760E+03 -7.804737E+01
         4   2  1.313956E+04  6.661169E+02  6.659692E+02 -1.441843E-02 -2.321810E+00 -7.753637E+01
         4   3  1.262371E+04 -1.919262E+02 -1.910520E+02 -2.745753E+03 -2.747531E+03 -7.702519E+01
         4   4  1.204479E+04 -4.243131E+02 -3.867516E+02  3.839018E-07  2.742832E+03  6.400964E-08
         4   5  1.255859E+04  4.337302E+02  4.723136E+02  3.136154E-07 -2.249716E+00  3.500989E-06
         4   6  1.204274E+04 -4.243131E+02 -3.847077E+02  2.633693E-07 -2.747459E+03  3.169463E-06
         4   7  1.262575E+04 -1.919262E+02 -1.930959E+02 -2.745724E+03  2.742760E+03  7.804737E+01
         4   8  1.313956E+04  6.661169E+02  6.659691E+02  1.441903E-02 -2.321809E+00  7.753638E+01
         4   9  1.262371E+04 -1.919262E+02 -1.910520E+02  2.745753E+03 -2.747531E+03  7.702519E+01
         4  10  1.203902E+04 -3.856560E+02 -4.243865E+02  2.745739E+03 -2.912635E+00 -5.851756E-01
         4  11  1.255385E+04  4.723872E+02  4.336565E+02  5.409643E-08 -2.256043E+00 -7.408474E-02
         4  12  1.203902E+04 -3.856560E+02 -4.243870E+02 -2.745739E+03 -1.727223E+00  4.370004E-01
         4  13  1.145806E+04 -6.180428E+02 -6.180422E+02  4.959621E-07 -2.840541E+00  1.083949E-06
         4  14  1.197288E+04  2.400006E+02  2.400010E+02  1.380367E-07 -2.183949E+00  2.730120E-06
         4  15  1.145806E+04 -6.180428E+02 -6.180426E+02 -2.167589E-07 -1.655129E+00  9.011444E-07
         4  16  1.203902E+04 -3.856560E+02 -4.243865E+02 -2.745739E+03 -2.912634E+00  5.851781E-01
         4  17  1.255385E+04  4.723872E+02  4.336565E+02  4.656640E-08 -2.256042E+00  7.408917E-02
         4  18  1.203902E+04 -3.856560E+02 -4.243870E+02  2.745739E+03 -1.727223E+00 -4.370010E-01
         4  19  1.261423E+04 -1.920744E+02 -1.909034E+02  2.745753E+03 -2.748715E+03  7.687702E+01
         4  20  1.313007E+04  6.659687E+02  6.661173E+02  1.441825E-02 -2.320045E+00  7.738820E+01
         4  21  1.261627E+04 -1.920744E+02 -1.929482E+02 -2.745724E+03  2.743947E+03  7.789919E+01
         4  22  1.203326E+04 -4.244613E+02 -3.845590E+02  4.685016E-07 -2.748643E+03  1.753640E-06
         4  23  1.254911E+04  4.335820E+02  4.724618E+02 -1.897492E-07 -2.247951E+00  1.679057E-06
         4  24  1.203530E+04 -4.244613E+02 -3.866038E+02 -8.641767E-07  2.744019E+03 -1.253302E-06
         4  25  1.261423E+04 -1.920744E+02 -1.909034E+02 -2.745753E+03 -2.748715E+03 -7.687701E+01
         4  26  1.313007E+04  6.659687E+02  6.661173E+02 -1.441894E-02 -2.320044E+00 -7.738820E+01
         4  27  1.261627E+04 -1.920744E+02 -1.929482E+02  2.745724E+03  2.743947E+03 -7.789919E+01
         5   1  1.262507E+04 -1.919262E+02 -1.924150E+02  2.745734E+03  2.744351E+03 -7.770664E+01
         5   2  1.313956E+04  6.661169E+02  6.659687E+02 -4.806497E-03 -7.739364E-01 -7.753637E+01
         5   3  1.262439E+04 -1.919262E+02 -1.917337E+02 -2.745743E+03 -2.745941E+03 -7.736592E+01
         5   4  1.204411E+04 -4.243131E+02 -3.860707E+02 -1.350439E-07  2.744375E+03  2.400970E-06
         5   5  1.255859E+04  4.337302E+02  4.723132E+02 -2.400656E-07 -7.499052E-01  9.879163E-07
         5   6  1.204342E+04 -4.243131E+02 -3.853893E+02 -3.433381E-07 -2.745917E+03  4.192437E-08
         5   7  1.262507E+04 -1.919263E+02 -1.924150E+02 -2.745734E+03  2.744351E+03  7.770665E+01
         5   8  1.313956E+04  6.661169E+02  6.659687E+02  4.806050E-03 -7.739367E-01  7.753638E+01
         5   9  1.262439E+04 -1.919262E+02 -1.917337E+02  2.745743E+03 -2.745941E+03  7.736592E+01
         5  10  1.203902E+04 -3.856559E+02 -4.243871E+02  2.745739E+03 -1.366015E+00 -2.444526E-01
         5  11  1.255385E+04  4.723872E+02  4.336561E+02 -5.655160E-08 -7.520140E-01 -7.408790E-02
         5  12  1.203902E+04 -3.856560E+02 -4.243872E+02 -2.745739E+03 -1.806034E-01  9.627640E-02
         5  13  1.145806E+04 -6.180428E+02 -6.180427E+02 -1.511484E-08 -1.341984E+00  9.486106E-08
         5  14  1.197288E+04  2.400005E+02  2.400006E+02 -1.404333E-07 -7.279829E-01  2.570881E-08
         5  15  1.145806E+04 -6.180428E+02 -6.180428E+02 -2.647157E-07 -1.565724E-01 -8.428932E-08
         5  16  1.203902E+04 -3.856560E+02 -4.243871E+02 -2.745739E+03 -1.366016E+00  2.444503E-01
         5  17  1.255385E+04  4.723872E+02  4.336561E+02 -5.349960E-08 -7.520144E-01  7.408746E-02
         5  18  1.203902E+04 -3.856560E+02 -4.243872E+02  2.745739E+03 -1.806038E-01 -9.627521E-02
         5  19  1.261491E+04 -1.920744E+02 -1.915854E+02  2.745743E+03 -2.747126E+03  7.721774E+01
         5  20  1.313007E+04  6.659687E+02  6.661169E+02  4.806692E-03 -7.733479E-01  7.738820E+01
         5  21  1.261559E+04 -1.920744E+02 -1.922670E+02 -2.745734E+03  2.745537E+03  7.755847E+01
         5  22  1.203394E+04 -4.244613E+02 -3.852410E+02  2.850100E-07 -2.747102E+03 -2.281314E-06
         5  23  1.254911E+04  4.335820E+02  4.724614E+02  1.233769E-07 -7.493169E-01 -1.006565E-06
         5  24  1.203462E+04 -4.244613E+02 -3.859226E+02 -3.798119E-08  2.745561E+03  2.010667E-07
         5  25  1.261491E+04 -1.920744E+02 -1.915854E+02 -2.745743E+03 -2.747126E+03 -7.721774E+01
         5  26  1.313007E+04  6.659687E+02  6.661169E+02 -4.806134E-03 -7.733483E-01 -7.738820E+01
         5  27  1.261559E+04 -1.920744E+02 -1.922670E+02  2.745734E+03  2.745537E+03 -7.755847E+01
         6   1  1.262439E+04 -1.919262E+02 -1.917337E+02  2.745743E+03  2.745941E+03 -7.736592E+01
         6   2  1.313956E+04  6.661169E+02  6.659687E+02  4.806250E-03  7.739366E-01 -7.753638E+01
         6   3  1.262507E+04 -1.919262E+02 -1.924150E+02 -2.745734E+03 -2.744351E+03 -7.770665E+01
         6   4  1.204342E+04 -4.243131E+02 -3.853893E+02  8.119753E-08  2.745917E+03 -6.725751E-07
         6   5  1.255859E+04  4.337302E+02  4.723132E+02  4.589429E-09  7.499052E-01 -3.397564E-07
         6   6  1.204411E+04 -4.243131E+02 -3.860707E+02 -7.537372E-08 -2.744375E+03 -2.257560E-07
         6   7  1.262439E+04 -1.919262E+02 -1.917337E+02 -2.745743E+03  2.745941E+03  7.736592E+01
         6   8  1.313956E+04  6.661169E+02  6.659687E+02 -4.806248E-03  7.739365E-01  7.753638E+01
         6   9  1.262507E+04 -1.919262E+02 -1.924150E+02  2.745734E+03 -2.744351E+03  7.770665E+01
         6  10  1.203902E+04 -3.856560E+02 -4.243872E+02  2.745739E+03  1.806034E-01  9.627606E-02
         6  11  1.255385E+04  4.723872E+02  4.336561E+02  1.444488E-08  7.520142E-01 -7.408792E-02
         6  12  1.203902E+04 -3.856560E+02 -4.243871E+02 -2.745739E+03  1.366016E+00 -2.444523E-01
         6  13  1.145806E+04 -6.180428E+02 -6.180428E+02 -5.955367E-08  1.565723E-01 -2.389284E-08
         6  14  1.197288E+04  2.400006E+02  2.400006E+02  3.681855E-08  7.279829E-01 -9.796006E-08
         6  15  1.145806E+04 -6.180428E+02 -6.180427E+02  1.334493E-07  1.341984E+00 -8.435059E-08
         6  16  1.203902E+04 -3.856560E+02 -4.243872E+02 -2.745739E+03  1.806037E-01 -9.627553E-02
         6  17  1.255385E+04  4.723872E+02  4.336561E+02  9.747821E-09  7.520142E-01  7.408864E-02
         6  18  1.203902E+04 -3.856560E+02 -4.243871E+02  2.745739E+03  1.366015E+00  2.444522E-01
         6  19  1.261559E+04 -1.920744E+02 -1.922670E+02  2.745734E+03 -2.745537E+03  7.755847E+01
         6  20  1.313007E+04  6.659687E+02  6.661169E+02 -4.806308E-03  7.733481E-01  7.738820E+01
         6  21  1.261491E+04 -1.920744E+02 -1.915854E+02 -2.745743E+03  2.747126E+03  7.721774E+01
         6  22  1.203462E+04 -4.244613E+02 -3.859226E+02 -2.788796E-07 -2.745561E+03  3.445623E-07
         6  23  1.254911E+04  4.335820E+02  4.724614E+02  3.355557E-08  7.493169E-01  2.839459E-07
         6  24  1.203394E+04 -4.244613E+02 -3.852410E+02  3.491537E-07  2.747102E+03  4.510409E-09
         6  25  1.261559E+04 -1.920744E+02 -1.922670E+02 -2.745734E+03 -2.745537E+03 -7.755847E+01
         6  26  1.313007E+04  6.659687E+02  6.661169E+02  4.806279E-03  7.733481E-01 -7.738820E+01
         6  27  1.261491E+04 -1.920744E+02 -1.915854E+02  2.745743E+03  2.747126E+03 -7.721774E+01
         7   1  1.262371E+04 -1.919262E+02 -1.910520E+02  2.745753E+03  2.747531E+03 -7.702519E+01
         7   2  1.313956E+04  6.661169E+02  6.659691E+02  1.441874E-02  2.321810E+00 -7.753637E+01
         7   3  1.262575E+04 -1.919262E+02 -1.930959E+02 -2.745724E+03 -2.742760E+03 -7.804737E+01
         7   4  1.204274E+04 -4.243131E+02 -3.847077E+02 -1.696158E-07  2.747459E+03  4.885967E-08
         7   5  1.255859E+04  4.337302E+02  4.723136E+02 -2.797662E-09  2.249716E+00  1.364241E-06
         7   6  1.204479E+04 -4.243131E+02 -3.867516E+02  1.781475E-07 -2.742832E+03  2.488047E-06
         7   7  1.262371E+04 -1.919262E+02 -1.910520E+02 -2.745753E+03  2.747531E+03  7.702519E+01
         7   8  1.313956E+04  6.661169E+02  6.659691E+02 -1.441880E-02  2.321809E+00  7.753638E+01
         7   9  1.262575E+04 -1.919263E+02 -1.930959E+02  2.745724E+03 -2.742760E+03  7.804737E+01
         7  10  1.203902E+04 -3.856560E+02 -4.243870E+02  2.745739E+03  1.727223E+00  4.370008E-01
         7  11  1.255385E+04  4.723873E+02  4.336565E+02  5.990189E-08  2.256043E+00 -7.408905E-02
         7  12  1.203902E+04 -3.856560E+02 -4.243865E+02 -2.745739E+03  2.912634E+00 -5.851797E-01
         7  13  1.145806E+04 -6.180428E+02 -6.180426E+02  1.747489E-07  1.655129E+00  6.417303E-08
         7  14  1.197288E+04  2.400006E+02  2.400010E+02  1.242494E-07  2.183949E+00  4.014516E-07
         7  15  1.145806E+04 -6.180428E+02 -6.180422E+02  7.266936E-08  2.840541E+00  3.019588E-07
         7  16  1.203902E+04 -3.856560E+02 -4.243870E+02 -2.745739E+03  1.727223E+00 -4.370010E-01
         7  17  1.255385E+04  4.723872E+02  4.336565E+02  4.679471E-08  2.256042E+00  7.408870E-02
         7  18  1.203902E+04 -3.856560E+02 -4.243865E+02  2.745739E+03  2.912635E+00  5.851784E-01
         7  19  1.261627E+04 -1.920744E+02 -1.929482E+02  2.745724E+03 -2.743947E+03  7.789919E+01
         7  20  1.313007E+04  6.659687E+02  6.661173E+02 -1.441892E-02  2.320044E+00  7.738820E+01
         7  21  1.261423E+04 -1.920744E+02 -1.909034E+02 -2.745753E+03  2.748715E+03  7.687701E+01
         7  22  1.203530E+04 -4.244613E+02 -3.866038E+02  3.456690E-07 -2.744019E+03 -6.065369E-08
         7  23  1.254911E+04  4.335820E+02  4.724618E+02  8.542233E-08  2.247951E+00 -7.715342E-07
         7  24  1.203326E+04 -4.244613E+02 -3.845590E+02 -1.936387E-07  2.748643E+03 -2.304495E-06
         7  25  1.261627E+04 -1.920744E+02 -1.929482E+02 -2.745724E+03 -2.743947E+03 -7.789919E+01
         7  26  1.313007E+04  6.659687E+02  6.661173E+02  1.441887E-02  2.320044E+00 -7.738820E+01
         7  27  1.261423E+04 -1.920744E+02 -1.909034E+02  2.745753E+03  2.748715E+03 -7.687702E+01
         8   1  1.262303E+04 -1.919262E+02 -1.903699E+02  2.745763E+03  2.749122E+03 -7.668447E+01
         8   2  1.313956E+04  6.661169E+02  6.659699E+02  2.403092E-02  3.869683E+00 -7.753638E+01
         8   3  1.262644E+04 -1.919262E+02 -1.937764E+02 -2.745715E+03 -2.741169E+03 -7.838810E+01
         8   4  1.204206E+04 -4.243131E+02 -3.840256E+02 -5.909608E-07  2.749001E+03  1.432525E-06
         8   5  1.255859E+04  4.337302E+02  4.723144E+02 -3.099792E-07  3.749526E+00 -2.288634E-06
         8   6  1.204547E+04 -4.243131E+02 -3.874321E+02 -5.099109E-08 -2.741289E+03 -4.759369E-06
         8   7  1.262303E+04 -1.919262E+02 -1.903699E+02 -2.745763E+03  2.749122E+03  7.668447E+01
         8   8  1.313956E+04  6.661169E+02  6.659699E+02 -2.403149E-02  3.869682E+00  7.753638E+01
         8   9  1.262644E+04 -1.919262E+02 -1.937764E+02  2.745715E+03 -2.741169E+03  7.838810E+01
         8  10  1.203902E+04 -3.856560E+02 -4.243864E+02  2.745739E+03  3.273842E+00  7.777251E-01
         8  11  1.255385E+04  4.723873E+02  4.336573E+02 -1.084297E-07  3.760071E+00 -7.408831E-02
         8  12  1.203902E+04 -3.856560E+02 -4.243856E+02 -2.745739E+03  4.459254E+00 -9.259007E-01
         8  13  1.145806E+04 -6.180428E+02 -6.180420E+02 -5.221247E-07  3.153685E+00 -2.564496E-07
         8  14  1.197288E+04  2.400006E+02  2.400017E+02 -2.990838E-07  3.639914E+00 -1.161485E-06
         8  15  1.145806E+04 -6.180428E+02 -6.180413E+02 -8.170388E-08  4.339097E+00 -4.395452E-07
         8  16  1.203902E+04 -3.856560E+02 -4.243864E+02 -2.745739E+03  3.273842E+00 -7.777267E-01
         8  17  1.255385E+04  4.723873E+02  4.336573E+02 -1.269026E-07  3.760071E+00  7.408765E-02
         8  18  1.203902E+04 -3.856560E+02 -4.243856E+02  2.745739E+03  4.459254E+00  9.259035E-01
         8  19  1.261695E+04 -1.920744E+02 -1.936290E+02  2.745715E+03 -2.742358E+03  7.823991E+01
         8  20  1.313007E+04  6.659687E+02  6.661181E+02 -2.403054E-02  3.866741E+00  7.738820E+01
         8  21  1.261354E+04 -1.920745E+02 -1.902210E+02 -2.745763E+03  2.750304E+03  7.653630E+01
         8  22  1.203599E+04 -4.244613E+02 -3.872847E+02 -1.002706E-07 -2.742478E+03 -2.645868E-06
         8  23  1.254911E+04  4.335820E+02  4.724625E+02  7.471094E-08  3.746584E+00 -1.743309E-07
         8  24  1.203258E+04 -4.244613E+02 -3.838767E+02  2.663916E-07  2.750184E+03  3.477573E-06
         8  25  1.261695E+04 -1.920744E+02 -1.936290E+02 -2.745715E+03 -2.742358E+03 -7.823992E+01
         8  26  1.313007E+04  6.659688E+02  6.661181E+02  2.403135E-02  3.866740E+00 -7.738820E+01
         8  27  1.261354E+04 -1.920744E+02 -1.902210E+02  2.745763E+03  2.750304E+03 -7.653629E+01
         9   1  1.262235E+04 -1.919263E+02 -1.896874E+02  2.745772E+03  2.750712E+03 -7.634374E+01
         9   2  1.313956E+04  6.661169E+02  6.659711E+02  3.364387E-02  5.417555E+00 -7.753638E+01
         9   3  1.262712E+04 -1.919263E+02 -1.944566E+02 -2.745705E+03 -2.739578E+03 -7.872883E+01
         9   4  1.204138E+04 -4.243131E+02 -3.833431E+02  2.791759E-07  2.750543E+03 -5.166413E-06
         9   5  1.255859E+04  4.337302E+02  4.723155E+02  1.235525E-07  5.249336E+00 -3.669734E-06
         9   6  1.204615E+04 -4.243131E+02 -3.881123E+02 -4.689626E-08 -2.739747E+03 -2.638293E-06
         9   7  1.262235E+04 -1.919262E+02 -1.896874E+02 -2.745772E+03  2.750712E+03  7.634374E+01
         9   8  1.313956E+04  6.661170E+02  6.659711E+02 -3.364369E-02  5.417555E+00  7.753638E+01
         9   9  1.262712E+04 -1.919263E+02 -1.944566E+02  2.745705E+03 -2.739578E+03  7.872882E+01
         9  10  1.203902E+04 -3.856560E+02 -4.243854E+02  2.745739E+03  4.820461E+00  1.118457E+00
         9  11  1.255385E+04  4.723873E+02  4.336584E+02  7.109837E-08  5.264099E+00 -7.408609E-02
         9  12  1.203902E+04 -3.856560E+02 -4.243844E+02 -2.745739E+03  6.005873E+00 -1.266628E+00
         9  13  1.145806E+04 -6.180429E+02 -6.180411E+02 -5.285893E-08  4.652242E+00 -3.239731E-07
         9  14  1.197288E+04  2.400006E+02  2.400028E+02  1.136205E-07  5.095880E+00 -8.711175E-07
         9  15  1.145806E+04 -6.180429E+02 -6.180401E+02  2.752408E-07  5.837653E+00 -5.743249E-07
         9  16  1.203902E+04 -3.856560E+02 -4.243854E+02 -2.745739E+03  4.820461E+00 -1.118455E+00
         9  17  1.255385E+04  4.723873E+02  4.336585E+02  1.316408E-08  5.264099E+00  7.408650E-02
         9  18  1.203902E+04 -3.856560E+02 -4.243843E+02  2.745739E+03  6.005872E+00  1.266629E+00
         9  19  1.261763E+04 -1.920745E+02 -1.943094E+02  2.745705E+03 -2.740768E+03  7.858066E+01
         9  20  1.313007E+04  6.659687E+02  6.661193E+02 -3.364407E-02  5.413436E+00  7.738821E+01
         9  21  1.261286E+04 -1.920745E+02 -1.895382E+02 -2.745772E+03  2.751893E+03  7.619557E+01
         9  22  1.203667E+04 -4.244613E+02 -3.879651E+02 -4.139628E-07 -2.740936E+03  4.273213E-06
         9  23  1.254911E+04  4.335821E+02  4.724637E+02 -3.517364E-09  5.245218E+00  2.557948E-06
         9  24  1.203190E+04 -4.244613E+02 -3.831940E+02  4.037057E-07  2.751725E+03  1.634078E-06
         9  25  1.261763E+04 -1.920744E+02 -1.943094E+02 -2.745705E+03 -2.740768E+03 -7.858065E+01
         9  26  1.313007E+04  6.659688E+02  6.661193E+02  3.364381E-02  5.413436E+00 -7.738820E+01
         9  27  1.261286E+04 -1.920744E+02 -1.895382E+02  2.745772E+03  2.751893E+03 -7.619556E+01
        10   1  1.262166E+04 -1.919261E+02 -1.890044E+02  2.745782E+03  2.752302E+03 -7.600301E+01
        10   2  1.313956E+04  6.661171E+02  6.659729E+02  4.325639E-02  6.965428E+00 -7.753637E+01
        10   3  1.262780E+04 -1.919262E+02 -1.951361E+02 -2.745695E+03 -2.737987E+03 -7.906955E+01
        10   4  1.204070E+04 -4.243130E+02 -3.826601E+02 -2.874030E-07  2.752085E+03 -6.852122E-07
        10   5  1.255859E+04  4.337304E+02  4.723172E+02  7.207409E-08  6.749146E+00  2.844494E-06
        10   6  1.204683E+04 -4.243130E+02 -3.887919E+02  4.200018E-07 -2.738204E+03  1.369426E-06
        10   7  1.262166E+04 -1.919261E+02 -1.890044E+02 -2.745782E+03  2.752302E+03  7.600302E+01
        10   8  1.313956E+04  6.661171E+02  6.659729E+02 -4.325632E-02  6.965428E+00  7.753638E+01
        10   9  1.262780E+04 -1.919262E+02 -1.951361E+02  2.745695E+03 -2.737987E+03  7.906955E+01
        10  10  1.203902E+04 -3.856559E+02 -4.243838E+02  2.745739E+03  6.367080E+00  1.459185E+00
        10  11  1.255385E+04  4.723874E+02  4.336602E+02 -7.082318E-09  6.768127E+00 -7.407835E-02
        10  12  1.203902E+04 -3.856559E+02 -4.243825E+02 -2.745739E+03  7.552490E+00 -1.607353E+00
        10  13  1.145806E+04 -6.180428E+02 -6.180396E+02  7.301511E-07  6.150798E+00  1.136229E-06
        10  14  1.197288E+04  2.400007E+02  2.400045E+02  9.583089E-08  6.551845E+00  3.330377E-06
        10  15  1.145805E+04 -6.180428E+02 -6.180383E+02 -5.403023E-07  7.336209E+00  1.719462E-06
        10  16  1.203902E+04 -3.856559E+02 -4.243838E+02 -2.745739E+03  6.367079E+00 -1.459181E+00
        10  17  1.255385E+04  4.723874E+02  4.336602E+02  1.016597E-07  6.768127E+00  7.408699E-02
        10  18  1.203902E+04 -3.856559E+02 -4.243825E+02  2.745739E+03  7.552492E+00  1.607356E+00
        10  19  1.261831E+04 -1.920743E+02 -1.949893E+02  2.745695E+03 -2.739178E+03  7.892138E+01
        10  20  1.313007E+04  6.659689E+02  6.661211E+02 -4.325647E-02  6.960132E+00  7.738821E+01
        10  21  1.261218E+04 -1.920743E+02 -1.888549E+02 -2.745782E+03  2.753482E+03  7.585484E+01
        10  22  1.203735E+04 -4.244612E+02 -3.886450E+02  1.653571E-06 -2.739394E+03  3.465507E-06
        10  23  1.254911E+04  4.335822E+02  4.724654E+02 -1.008716E-08  6.743851E+00  4.446694E-06
        10  24  1.203121E+04 -4.244612E+02 -3.825107E+02 -1.682052E-06  2.753265E+03  1.467381E-06
        10  25  1.261831E+04 -1.920743E+02 -1.949893E+02 -2.745695E+03 -2.739178E+03 -7.892137E+01
        10  26  1.313007E+04  6.659689E+02  6.661211E+02  4.325625E-02  6.960132E+00 -7.738820E+01
        10  27  1.261218E+04 -1.920743E+02 -1.888549E+02  2.745782E+03  2.753482E+03 -7.585484E+01
