    1C
    1UUSER                                                              
    1UDATE              03.march.2026                                   
    1UTIME              22:07:38                                        
    1UHOST                                                              
    1UPGM               CalculiX                                        
    1UVERSION           Version DEVELOPMENT                             
    1UCOMPILETIME       Fri Feb 27 10:02:42 CET 2026                    
    1UDIR                                                               
    1UDBN                                                               
    1UMAT    1ALUM                                                      
    2C                            21                                     1
 -1         1 0.00000E+00 0.00000E+00 0.00000E+00
 -1         2 1.00000E+00 0.00000E+00 0.00000E+00
 -1         3 2.00000E+00 0.00000E+00 0.00000E+00
 -1         4 3.00000E+00 0.00000E+00 0.00000E+00
 -1         5 4.00000E+00 0.00000E+00 0.00000E+00
 -1         6 5.00000E+00 0.00000E+00 0.00000E+00
 -1         7 6.00000E+00 0.00000E+00 0.00000E+00
 -1         8 7.00000E+00 0.00000E+00 0.00000E+00
 -1         9 8.00000E+00 0.00000E+00 0.00000E+00
 -1        10 9.00000E+00 0.00000E+00 0.00000E+00
 -1        11 1.00000E+01 0.00000E+00 0.00000E+00
 -1        12 1.10000E+01 0.00000E+00 0.00000E+00
 -1        13 1.20000E+01 0.00000E+00 0.00000E+00
 -1        14 1.30000E+01 0.00000E+00 0.00000E+00
 -1        15 1.40000E+01 0.00000E+00 0.00000E+00
 -1        16 1.50000E+01 0.00000E+00 0.00000E+00
 -1        17 1.60000E+01 0.00000E+00 0.00000E+00
 -1        18 1.70000E+01 0.00000E+00 0.00000E+00
 -1        19 1.80000E+01 0.00000E+00 0.00000E+00
 -1        20 1.90000E+01 0.00000E+00 0.00000E+00
 -1        21 2.00000E+01 0.00000E+00 0.00000E+00
 -3
    3C                            10                                     1
 -1         1   12    0    1
 -2         1         3         2
 -1         2   12    0    1
 -2         3         5         4
 -1         3   12    0    1
 -2         5         7         6
 -1         4   12    0    1
 -2         7         9         8
 -1         5   12    0    1
 -2         9        11        10
 -1         6   12    0    1
 -2        11        13        12
 -1         7   12    0    1
 -2        13        15        14
 -1         8   12    0    1
 -2        15        17        16
 -1         9   12    0    1
 -2        17        19        18
 -1        10   12    0    1
 -2        19        21        20
 -3
    1PSTEP                         1           2           2          
  100CL  102 2.000000000          21                     0    2           1
 -4  DISP        4    1
 -5  D1          1    2    1    0
 -5  D2          1    2    2    0
 -5  D3          1    2    3    0
 -5  ALL         1    2    0    0    1ALL
 -1         1 3.38813E-21-4.13590E-25 8.27181E-25
 -1         2-9.23941E-08-5.04628E-18-5.58418E-04
 -1         3-1.84788E-07 1.84267E-18-1.11683E-03
 -1         4-2.15586E-07-1.36619E-18-1.55116E-03
 -1         5-2.46384E-07 3.68269E-17-1.98548E-03
 -1         6-2.30985E-07 4.38459E-18-2.29572E-03
 -1         7-2.15586E-07-8.50560E-19-2.60595E-03
 -1         8-1.69389E-07-2.50487E-18-2.79209E-03
 -1         9-1.23192E-07 2.74506E-18-2.97823E-03
 -1        10-6.15961E-08 9.32682E-20-3.04027E-03
 -1        11 1.38478E-16-1.01825E-18-3.10232E-03
 -1        12 6.15961E-08 3.95460E-19-3.04027E-03
 -1        13 1.23192E-07 1.54566E-19-2.97823E-03
 -1        14 1.69389E-07 6.91558E-19-2.79209E-03
 -1        15 2.15586E-07 3.07732E-18-2.60595E-03
 -1        16 2.30985E-07 5.54158E-19-2.29572E-03
 -1        17 2.46384E-07-4.99893E-18-1.98548E-03
 -1        18 2.15586E-07-2.13990E-18-1.55116E-03
 -1        19 1.84788E-07-2.10259E-18-1.11683E-03
 -1        20 9.23941E-08-6.68928E-18-5.58418E-04
 -1        21-3.38813E-21-1.77844E-22-8.27181E-25
 -3
    1PSTEP                         2           2           2          
  100CL  102 2.000000000          21                     0    2           1
 -4  STRESS      6    1
 -5  SXX         1    4    1    1
 -5  SYY         1    4    2    2
 -5  SZZ         1    4    3    3
 -5  SXY         1    4    1    2
 -5  SYZ         1    4    2    3
 -5  SZX         1    4    3    1
 -1         1-4.78238E-02-5.56768E-08 7.35084E+02-7.96483E-09 1.68316E-09 1.59413E-02
 -1         2-2.39119E-02-6.95327E-08 7.35084E+02-6.33666E-09 7.22175E-09 1.59413E-02
 -1         3-9.91022E-10-8.33886E-08 7.35084E+02-4.70849E-09 1.27603E-08 1.59413E-02
 -1         4 1.30871E-10-2.47111E-08 7.35084E+02 3.96147E-10 1.00392E-07 1.59412E-02
 -1         5 1.25277E-09 3.39663E-08 7.35084E+02 5.50079E-09 1.88024E-07 1.59412E-02
 -1         6-9.60179E-10 4.82074E-08 7.35084E+02 5.01744E-09 9.18694E-08 1.59412E-02
 -1         7-3.17312E-09 6.24486E-08 7.35084E+02 4.53410E-09-4.28534E-09 1.59413E-02
 -1         8-3.06159E-10 3.58448E-08 7.35084E+02 2.54640E-09 5.93144E-09 1.59413E-02
 -1         9 2.56081E-09 9.24100E-09 7.35084E+02 5.58705E-10 1.61482E-08 1.59413E-02
 -1        10 4.32623E-10 9.93594E-09 7.35084E+02 3.75306E-10 7.01411E-09 1.59413E-02
 -1        11-1.69556E-09 1.06309E-08 7.35084E+02 1.91908E-10-2.12000E-09 1.59413E-02
 -1        12 2.10058E-09 1.32953E-09 7.35084E+02-7.73186E-10-1.01665E-09 1.59413E-02
 -1        13 5.89673E-09-7.97181E-09 7.35084E+02-1.73828E-09 8.67004E-11 1.59413E-02
 -1        14 1.97415E-09 2.48174E-09 7.35084E+02-1.17611E-09 6.38374E-09 1.59413E-02
 -1        15-1.94843E-09 1.29353E-08 7.35084E+02-6.13942E-10 1.26808E-08 1.59413E-02
 -1        16-2.52982E-10 5.76396E-09 7.35084E+02 1.81942E-10-5.96384E-09 1.59413E-02
 -1        17 1.44247E-09-1.40738E-09 7.35084E+02 9.77826E-10-2.46085E-08 1.59413E-02
 -1        18 1.61262E-09-1.76237E-08 7.35084E+02-1.42828E-09-1.67847E-08 1.59413E-02
 -1        19 1.78278E-09-3.38401E-08 7.35084E+02-3.83438E-09-8.96101E-09 1.59413E-02
 -1        20 2.39119E-02 8.32603E-09 7.35084E+02 1.41521E-09-3.26614E-09 1.59413E-02
 -1        21 4.78238E-02 5.04921E-08 7.35084E+02 6.66480E-09 2.42874E-09 1.59413E-02
 -3
 9999
