    1C
    1UBalken                                                            
    1UUSER                                                              
    1UDATE              05.september.2023                               
    1UTIME              21:28:28                                        
    1UHOST                                                              
    1UPGM               CalculiX                                        
    1UVERSION           Version DEVELOPMENT                             
    1UCOMPILETIME       Tue Sep  5 21:10:29 CEST 2023                    
    1UDIR                                                               
    1UDBN                                                               
    1UMAT    1STEEL                                                     
    2C                            68                                     1
 -1        12-1.25000E+01 2.50000E+01 0.00000E+00
 -1        13-1.25000E+01-2.50000E+01 0.00000E+00
 -1        14 1.25000E+01-2.50000E+01 0.00000E+00
 -1        15 1.25000E+01 2.50000E+01 0.00000E+00
 -1        16-1.25000E+01 0.00000E+00 0.00000E+00
 -1        17 0.00000E+00-2.50000E+01 0.00000E+00
 -1        18 1.25000E+01 0.00000E+00 0.00000E+00
 -1        19 0.00000E+00 2.50000E+01 0.00000E+00
 -1        20-1.25000E+01 2.50000E+01 1.00000E+02
 -1        21-1.25000E+01-2.50000E+01 1.00000E+02
 -1        22 1.25000E+01-2.50000E+01 1.00000E+02
 -1        23 1.25000E+01 2.50000E+01 1.00000E+02
 -1        28-1.25000E+01 2.50000E+01 2.00000E+02
 -1        29-1.25000E+01-2.50000E+01 2.00000E+02
 -1        30 1.25000E+01-2.50000E+01 2.00000E+02
 -1        31 1.25000E+01 2.50000E+01 2.00000E+02
 -1        32-1.25000E+01 0.00000E+00 2.00000E+02
 -1        33 0.00000E+00-2.50000E+01 2.00000E+02
 -1        34 1.25000E+01 0.00000E+00 2.00000E+02
 -1        35 0.00000E+00 2.50000E+01 2.00000E+02
 -1        36-1.25000E+01 2.50000E+01 3.00000E+02
 -1        37-1.25000E+01-2.50000E+01 3.00000E+02
 -1        38 1.25000E+01-2.50000E+01 3.00000E+02
 -1        39 1.25000E+01 2.50000E+01 3.00000E+02
 -1        44-1.25000E+01 2.50000E+01 4.00000E+02
 -1        45-1.25000E+01-2.50000E+01 4.00000E+02
 -1        46 1.25000E+01-2.50000E+01 4.00000E+02
 -1        47 1.25000E+01 2.50000E+01 4.00000E+02
 -1        48-1.25000E+01 0.00000E+00 4.00000E+02
 -1        49 0.00000E+00-2.50000E+01 4.00000E+02
 -1        50 1.25000E+01 0.00000E+00 4.00000E+02
 -1        51 0.00000E+00 2.50000E+01 4.00000E+02
 -1        52-1.25000E+01 2.50000E+01 5.00000E+02
 -1        53-1.25000E+01-2.50000E+01 5.00000E+02
 -1        54 1.25000E+01-2.50000E+01 5.00000E+02
 -1        55 1.25000E+01 2.50000E+01 5.00000E+02
 -1        60-1.25000E+01 2.50000E+01 6.00000E+02
 -1        61-1.25000E+01-2.50000E+01 6.00000E+02
 -1        62 1.25000E+01-2.50000E+01 6.00000E+02
 -1        63 1.25000E+01 2.50000E+01 6.00000E+02
 -1        64-1.25000E+01 0.00000E+00 6.00000E+02
 -1        65 0.00000E+00-2.50000E+01 6.00000E+02
 -1        66 1.25000E+01 0.00000E+00 6.00000E+02
 -1        67 0.00000E+00 2.50000E+01 6.00000E+02
 -1        68-1.25000E+01 2.50000E+01 7.00000E+02
 -1        69-1.25000E+01-2.50000E+01 7.00000E+02
 -1        70 1.25000E+01-2.50000E+01 7.00000E+02
 -1        71 1.25000E+01 2.50000E+01 7.00000E+02
 -1        76-1.25000E+01 2.50000E+01 8.00000E+02
 -1        77-1.25000E+01-2.50000E+01 8.00000E+02
 -1        78 1.25000E+01-2.50000E+01 8.00000E+02
 -1        79 1.25000E+01 2.50000E+01 8.00000E+02
 -1        80-1.25000E+01 0.00000E+00 8.00000E+02
 -1        81 0.00000E+00-2.50000E+01 8.00000E+02
 -1        82 1.25000E+01 0.00000E+00 8.00000E+02
 -1        83 0.00000E+00 2.50000E+01 8.00000E+02
 -1        84-1.25000E+01 2.50000E+01 9.00000E+02
 -1        85-1.25000E+01-2.50000E+01 9.00000E+02
 -1        86 1.25000E+01-2.50000E+01 9.00000E+02
 -1        87 1.25000E+01 2.50000E+01 9.00000E+02
 -1        92-1.25000E+01 2.50000E+01 1.00000E+03
 -1        93-1.25000E+01-2.50000E+01 1.00000E+03
 -1        94 1.25000E+01-2.50000E+01 1.00000E+03
 -1        95 1.25000E+01 2.50000E+01 1.00000E+03
 -1        96-1.25000E+01 0.00000E+00 1.00000E+03
 -1        97 0.00000E+00-2.50000E+01 1.00000E+03
 -1        98 1.25000E+01 0.00000E+00 1.00000E+03
 -1        99 0.00000E+00 2.50000E+01 1.00000E+03
 -3
    3C                             5                                     1
 -1         1    4    0    1
 -2        12        28        29        13        15        31        30        14        20        32
 -2        21        16        19        35        33        17        23        34        22        18
 -1         2    4    0    1
 -2        28        44        45        29        31        47        46        30        36        48
 -2        37        32        35        51        49        33        39        50        38        34
 -1         3    4    0    1
 -2        44        60        61        45        47        63        62        46        52        64
 -2        53        48        51        67        65        49        55        66        54        50
 -1         4    4    0    1
 -2        60        76        77        61        63        79        78        62        68        80
 -2        69        64        67        83        81        65        71        82        70        66
 -1         5    4    0    1
 -2        76        92        93        77        79        95        94        78        84        96
 -2        85        80        83        99        97        81        87        98        86        82
 -3
    1PSTEP                         1           1           1          
    1PGM                1.000000E+00                                  
    1PGK                6.651691E+03                                  
    1PHID                         -1                                  
    1PSUBC                         0                                  
    1PMODE                         1                                  
  100CL  101 12.98034337          68                     2    1MODAL      1
 -4  DISP        4    1
 -5  D1          1    2    1    0
 -5  D2          1    2    2    0
 -5  D3          1    2    3    0
 -5  ALL         1    2    0    0    1ALL
 -1        12-2.06469E-04 3.40435E-03-1.80264E-07
 -1        13-2.06536E-04-3.40449E-03 1.80263E-07
 -1        14 2.06466E-04 8.36334E-03-1.80262E-07
 -1        15 2.06540E-04-8.36321E-03 1.80263E-07
 -1        16-2.06503E-04-6.70424E-08-5.14701E-13
 -1        17-3.54405E-08 2.47943E-03 1.22415E-13
 -1        18 2.06503E-04 6.70424E-08 5.14701E-13
 -1        19 3.54405E-08-2.47943E-03-1.22415E-13
 -1        20-6.20867E-01 5.53317E-03-9.14766E-02
 -1        21-6.20866E-01-5.53299E-03-9.14766E-02
 -1        22-6.24030E-01 1.32817E-02 2.18179E-01
 -1        23-6.24031E-01-1.32811E-02 2.18179E-01
 -1        28-2.47540E+00 7.56302E-03-1.82075E-01
 -1        29-2.47540E+00-7.56264E-03-1.82075E-01
 -1        30-2.48112E+00 1.79699E-02 4.34376E-01
 -1        31-2.48112E+00-1.79690E-02 4.34376E-01
 -1        32-2.48976E+00 1.89457E-07-1.81691E-01
 -1        33-2.47459E+00 5.18856E-03 1.26415E-01
 -1        34-2.49554E+00 4.52269E-07 4.34541E-01
 -1        35-2.47459E+00-5.18791E-03 1.26415E-01
 -1        36-5.51366E+00 5.63233E-03-2.62404E-01
 -1        37-5.51366E+00-5.63157E-03-2.62404E-01
 -1        38-5.51794E+00 1.35097E-02 6.26453E-01
 -1        39-5.51794E+00-1.35087E-02 6.26453E-01
 -1        44-9.51126E+00 3.65521E-03-3.23508E-01
 -1        45-9.51126E+00-3.65423E-03-3.23508E-01
 -1        46-9.51334E+00 8.72865E-03 7.72753E-01
 -1        47-9.51334E+00-8.72710E-03 7.72753E-01
 -1        48-9.51710E+00 4.89545E-07-3.23254E-01
 -1        49-9.51089E+00 2.54452E-03 2.24668E-01
 -1        50-9.51914E+00 7.71401E-07 7.73181E-01
 -1        51-9.51089E+00-2.54325E-03 2.24668E-01
 -1        52-1.42202E+01 2.85564E-03-3.68681E-01
 -1        53-1.42202E+01-2.85428E-03-3.68681E-01
 -1        54-1.42222E+01 6.79100E-03 8.80621E-01
 -1        55-1.42222E+01-6.78930E-03 8.80621E-01
 -1        60-1.94576E+01 2.05118E-03-4.01485E-01
 -1        61-1.94576E+01-2.04956E-03-4.01485E-01
 -1        62-1.94588E+01 4.89446E-03 9.59004E-01
 -1        63-1.94588E+01-4.89230E-03 9.59004E-01
 -1        64-1.94611E+01 8.09374E-07-4.01252E-01
 -1        65-1.94573E+01 1.42105E-03 2.78876E-01
 -1        66-1.94624E+01 1.08396E-06 9.59215E-01
 -1        67-1.94573E+01-1.41915E-03 2.78876E-01
 -1        68-2.50589E+01 1.24441E-03-4.22835E-01
 -1        69-2.50589E+01-1.24241E-03-4.22835E-01
 -1        70-2.50599E+01 2.95940E-03 1.01009E+00
 -1        71-2.50599E+01-2.95705E-03 1.01009E+00
 -1        76-3.08822E+01 5.01343E-04-4.34238E-01
 -1        77-3.08822E+01-4.99069E-04-4.34238E-01
 -1        78-3.08823E+01 1.20099E-03 1.03745E+00
 -1        79-3.08823E+01-1.19819E-03 1.03745E+00
 -1        80-3.08830E+01 1.13662E-06-4.34103E-01
 -1        81-3.08821E+01 3.53020E-04 3.01652E-01
 -1        82-3.08830E+01 1.39921E-06 1.03762E+00
 -1        83-3.08821E+01-3.50484E-04 3.01652E-01
 -1        84-3.68039E+01 1.83278E-04-4.38545E-01
 -1        85-3.68039E+01-1.80623E-04-4.38545E-01
 -1        86-3.68041E+01 3.95884E-04 1.04782E+00
 -1        87-3.68041E+01-3.92873E-04 1.04782E+00
 -1        92-4.27590E+01-3.15776E-05-4.39210E-01
 -1        93-4.27590E+01 3.45088E-05-4.39210E-01
 -1        94-4.27587E+01-6.97023E-05 1.04949E+00
 -1        95-4.27587E+01 7.31195E-05 1.04949E+00
 -1        96-4.27589E+01 1.46675E-06-4.39206E-01
 -1        97-4.27589E+01-1.57168E-05 3.05154E-01
 -1        98-4.27586E+01 1.70686E-06 1.04949E+00
 -1        99-4.27589E+01 1.88914E-05 3.05154E-01
 -3
    1PSTEP                         2           1           1          
    1PGM                1.000000E+00                                  
    1PGK                4.100752E+04                                  
    1PHID                         -1                                  
    1PSUBC                         0                                  
    1PMODE                         2                                  
  100CL  102 32.22937431          68                     2    2MODAL      1
 -4  DISP        4    1
 -5  D1          1    2    1    0
 -5  D2          1    2    2    0
 -5  D3          1    2    3    0
 -5  ALL         1    2    0    0    1ALL
 -1        12-1.02019E-02-1.45228E-02-3.42206E-02
 -1        13 1.02019E-02-1.45228E-02 3.42204E-02
 -1        14-2.47247E-02 1.45228E-02-3.42204E-02
 -1        15 2.47247E-02 1.45228E-02 3.42206E-02
 -1        16 3.61155E-10-1.45228E-02-9.77090E-08
 -1        17-7.26139E-03-1.23550E-09 2.32389E-08
 -1        18-3.61155E-10 1.45228E-02 9.77090E-08
 -1        19 7.26139E-03 1.23550E-09-2.32389E-08
 -1        20-6.58747E-02 6.98247E-01-3.26836E-01
 -1        21 6.58734E-02 6.98247E-01 3.26836E-01
 -1        22 3.90544E-02 7.38828E-01 3.39581E-01
 -1        23-3.90557E-02 7.38828E-01-3.39581E-01
 -1        28-4.00514E-02 2.64712E+00-6.38426E-01
 -1        29 4.00494E-02 2.64712E+00 6.38426E-01
 -1        30 2.12747E-02 2.70149E+00 6.17956E-01
 -1        31-2.12767E-02 2.70149E+00-6.17956E-01
 -1        32-1.02803E-06 2.63312E+00-5.72779E-08
 -1        33 3.06795E-02 2.67784E+00 6.28365E-01
 -1        34-1.02707E-06 2.68739E+00 8.14603E-10
 -1        35-3.06816E-02 2.67784E+00-6.28365E-01
 -1        36-6.53171E-02 5.72150E+00-8.85047E-01
 -1        37 6.53149E-02 5.72150E+00 8.85047E-01
 -1        38 4.91055E-02 5.76670E+00 8.86220E-01
 -1        39-4.91077E-02 5.76670E+00-8.86220E-01
 -1        44-5.98392E-02 9.68974E+00-1.08698E+00
 -1        45 5.98373E-02 9.68974E+00 1.08698E+00
 -1        46 4.66082E-02 9.76338E+00 1.08128E+00
 -1        47-4.66101E-02 9.76338E+00-1.08128E+00
 -1        48-9.46549E-07 9.68425E+00-1.91252E-08
 -1        49 5.32256E-02 9.72793E+00 1.08412E+00
 -1        50-9.46132E-07 9.75789E+00-9.06878E-08
 -1        51-5.32275E-02 9.72793E+00-1.08412E+00
 -1        52-7.20456E-02 1.43642E+01-1.23456E+00
 -1        53 7.20445E-02 1.43642E+01 1.23456E+00
 -1        54 6.20090E-02 1.44228E+01 1.23310E+00
 -1        55-6.20101E-02 1.44228E+01-1.23310E+00
 -1        60-6.98540E-02 1.95374E+01-1.34153E+00
 -1        61 6.98540E-02 1.95374E+01 1.34153E+00
 -1        62 6.39318E-02 1.96199E+01 1.34046E+00
 -1        63-6.39318E-02 1.96199E+01-1.34046E+00
 -1        64 2.88736E-09 1.95339E+01 6.51536E-09
 -1        65 6.69072E-02 1.95795E+01 1.34106E+00
 -1        66 3.14042E-09 1.96164E+01-1.52024E-07
 -1        67-6.69072E-02 1.95795E+01-1.34106E+00
 -1        68-7.79443E-02 2.50692E+01-1.41120E+00
 -1        69 7.79457E-02 2.50692E+01 1.41120E+00
 -1        70 7.38430E-02 2.51378E+01 1.40922E+00
 -1        71-7.38416E-02 2.51378E+01-1.40922E+00
 -1        76-7.51165E-02 3.08005E+01-1.44684E+00
 -1        77 7.51194E-02 3.08005E+01 1.44684E+00
 -1        78 7.38318E-02 3.08889E+01 1.44891E+00
 -1        79-7.38289E-02 3.08889E+01-1.44891E+00
 -1        80 1.46982E-06 3.07997E+01 1.88477E-08
 -1        81 7.44431E-02 3.08448E+01 1.44788E+00
 -1        82 1.46971E-06 3.08882E+01-1.81548E-07
 -1        83-7.44402E-02 3.08448E+01-1.44788E+00
 -1        84-8.27810E-02 3.66350E+01-1.46310E+00
 -1        85 8.27855E-02 3.66350E+01 1.46310E+00
 -1        86 8.19768E-02 3.67107E+01 1.46036E+00
 -1        87-8.19722E-02 3.67107E+01-1.46036E+00
 -1        92-7.39836E-02 4.24892E+01-1.46040E+00
 -1        93 7.39898E-02 4.24892E+01 1.46040E+00
 -1        94 7.44579E-02 4.25772E+01 1.46967E+00
 -1        95-7.44517E-02 4.25772E+01-1.46967E+00
 -1        96 3.11595E-06 4.24895E+01 2.10180E-08
 -1        97 7.43754E-02 4.25333E+01 1.46507E+00
 -1        98 3.11569E-06 4.25770E+01-1.86606E-07
 -1        99-7.43692E-02 4.25333E+01-1.46507E+00
 -3
    1PSTEP                         3           1           1          
    1PGM                1.000000E+00                                  
    1PGK                2.608863E+05                                  
    1PHID                         -1                                  
    1PSUBC                         0                                  
    1PMODE                         3                                  
  100CL  103 81.29162066          68                     2    3MODAL      1
 -4  DISP        4    1
 -5  D1          1    2    1    0
 -5  D2          1    2    2    0
 -5  D3          1    2    3    0
 -5  ALL         1    2    0    0    1ALL
 -1        12-4.09668E-03 2.14643E-02-1.17029E-06
 -1        13-4.09712E-03-2.14652E-02 1.17028E-06
 -1        14 4.09667E-03 5.26704E-02-1.17028E-06
 -1        15 4.09714E-03-5.26695E-02 1.17029E-06
 -1        16-4.09690E-03-4.35492E-07-3.34148E-12
 -1        17-2.28286E-07 1.56026E-02 7.94731E-13
 -1        18 4.09690E-03 4.35492E-07 3.34148E-12
 -1        19 2.28286E-07-1.56026E-02-7.94731E-13
 -1        20-3.55886E+00 1.79282E-02-4.77029E-01
 -1        21-3.55885E+00-1.79273E-02-4.77030E-01
 -1        22-3.56937E+00 4.46475E-02 1.13151E+00
 -1        23-3.56937E+00-4.46442E-02 1.13151E+00
 -1        28-1.19325E+01 1.31952E-02-7.12384E-01
 -1        29-1.19325E+01-1.31942E-02-7.12383E-01
 -1        30-1.19401E+01 3.13330E-02 1.68938E+00
 -1        31-1.19401E+01-3.13285E-02 1.68938E+00
 -1        32-1.19650E+01 5.24478E-07-7.04454E-01
 -1        33-1.19277E+01 8.95742E-03 4.92412E-01
 -1        34-1.19730E+01 2.27051E-06 1.69666E+00
 -1        35-1.19277E+01-8.95463E-03 4.92412E-01
 -1        36-2.16669E+01-1.08209E-02-6.71125E-01
 -1        37-2.16669E+01 1.08227E-02-6.71126E-01
 -1        38-2.16637E+01-2.69890E-02 1.59371E+00
 -1        39-2.16637E+01 2.69930E-02 1.59371E+00
 -1        44-2.89931E+01-3.45076E-02-3.57463E-01
 -1        45-2.89931E+01 3.45085E-02-3.57463E-01
 -1        46-2.89616E+01-8.18384E-02 8.50350E-01
 -1        47-2.89616E+01 8.18431E-02 8.50351E-01
 -1        48-2.89313E+01 4.33888E-07-3.54935E-01
 -1        49-2.89934E+01-2.35469E-02 2.47088E-01
 -1        50-2.88991E+01 2.33082E-06 8.54110E-01
 -1        51-2.89934E+01 2.35497E-02 2.47088E-01
 -1        52-3.06764E+01-3.70513E-02 1.16031E-01
 -1        53-3.06764E+01 3.70518E-02 1.16031E-01
 -1        54-3.06527E+01-9.00876E-02-2.79785E-01
 -1        55-3.06527E+01 9.00905E-02-2.79785E-01
 -1        60-2.56958E+01-3.77767E-02 6.23573E-01
 -1        61-2.56958E+01 3.77756E-02 6.23573E-01
 -1        62-2.56645E+01-8.95463E-02-1.48917E+00
 -1        63-2.56645E+01 8.95490E-02-1.48917E+00
 -1        64-2.56313E+01-5.39050E-07 6.22208E-01
 -1        65-2.56963E+01-2.58555E-02-4.33170E-01
 -1        66-2.55999E+01 1.32975E-06-1.49110E+00
 -1        67-2.56963E+01 2.58563E-02-4.33169E-01
 -1        68-1.40828E+01-2.73538E-02 1.06182E+00
 -1        69-1.40828E+01 2.73517E-02 1.06182E+00
 -1        70-1.40662E+01-6.61604E-02-2.53534E+00
 -1        71-1.40662E+01 6.61607E-02-2.53534E+00
 -1        76 2.54380E+00-1.65889E-02 1.36271E+00
 -1        77 2.54380E+00 1.65848E-02 1.36271E+00
 -1        78 2.55935E+00-3.88979E-02-3.25184E+00
 -1        79 2.55935E+00 3.88974E-02-3.25184E+00
 -1        80 2.57114E+00-2.05529E-06 1.35911E+00
 -1        81 2.54473E+00-1.11577E-02-9.46210E-01
 -1        82 2.58669E+00-2.54119E-07-3.25570E+00
 -1        83 2.54472E+00 1.11554E-02-9.46209E-01
 -1        84 2.21190E+01-6.06004E-03 1.50074E+00
 -1        85 2.21190E+01 6.05458E-03 1.50074E+00
 -1        86 2.21214E+01-1.42381E-02-3.58493E+00
 -1        87 2.21214E+01 1.42351E-02-3.58493E+00
 -1        92 4.27868E+01 8.62489E-04 1.52619E+00
 -1        93 4.27868E+01-8.70004E-04 1.52619E+00
 -1        94 4.27889E+01 3.59725E-03-3.64806E+00
 -1        95 4.27889E+01-3.60141E-03-3.64806E+00
 -1        96 4.27824E+01-3.74974E-06 1.52561E+00
 -1        97 4.27892E+01 1.31101E-03-1.06070E+00
 -1        98 4.27842E+01-2.09145E-06-3.64907E+00
 -1        99 4.27892E+01-1.31684E-03-1.06070E+00
 -3
    1PSTEP                         4           1           1          
    1PGM                1.000000E+00                                  
    1PGK                1.555988E+06                                  
    1PHID                         -1                                  
    1PSUBC                         0                                  
    1PMODE                         4                                  
  100CL  104 198.5286992          68                     2    4MODAL      1
 -4  DISP        4    1
 -5  D1          1    2    1    0
 -5  D2          1    2    2    0
 -5  D3          1    2    3    0
 -5  ALL         1    2    0    0    1ALL
 -1        12-6.50045E-02-7.73542E-02-2.25136E-01
 -1        13 6.50045E-02-7.73542E-02 2.25135E-01
 -1        14-1.42359E-01 7.73542E-02-2.25135E-01
 -1        15 1.42359E-01 7.73542E-02 2.25136E-01
 -1        16-2.46292E-11-7.73542E-02-6.42824E-07
 -1        17-3.86770E-02-6.13991E-09 1.52888E-07
 -1        18 2.46292E-11 7.73542E-02 6.42824E-07
 -1        19 3.86770E-02 6.13991E-09-1.52888E-07
 -1        20-5.37727E-01 4.01804E+00-1.63216E+00
 -1        21 5.37715E-01 4.01804E+00 1.63216E+00
 -1        22 4.28611E-01 4.44046E+00 1.66445E+00
 -1        23-4.28623E-01 4.44046E+00-1.66445E+00
 -1        28-5.21979E-01 1.26100E+01-2.39268E+00
 -1        29 5.21958E-01 1.26100E+01 2.39267E+00
 -1        30 5.23951E-01 1.32584E+01 2.23003E+00
 -1        31-5.23971E-01 1.32584E+01-2.23003E+00
 -1        32-1.03115E-05 1.25824E+01-4.51193E-07
 -1        33 5.23120E-01 1.29414E+01 2.31309E+00
 -1        34-1.02911E-05 1.32300E+01 1.61885E-07
 -1        35-5.23140E-01 1.29414E+01-2.31309E+00
 -1        36-7.89786E-01 2.20261E+01-2.09041E+00
 -1        37 7.89766E-01 2.20261E+01 2.09041E+00
 -1        38 8.44859E-01 2.27769E+01 2.06767E+00
 -1        39-8.44880E-01 2.27769E+01-2.06767E+00
 -1        44-8.48650E-01 2.86852E+01-1.05558E+00
 -1        45 8.48639E-01 2.86852E+01 1.05559E+00
 -1        46 9.50589E-01 2.96974E+01 1.00248E+00
 -1        47-9.50600E-01 2.96974E+01-1.00248E+00
 -1        48-5.38074E-06 2.87463E+01 2.09994E-07
 -1        49 8.99782E-01 2.91763E+01 1.02897E+00
 -1        50-5.36459E-06 2.97580E+01-1.46666E-06
 -1        51-8.99793E-01 2.91763E+01-1.02897E+00
 -1        52-9.74317E-01 2.99332E+01 4.87726E-01
 -1        53 9.74321E-01 2.99332E+01-4.87726E-01
 -1        54 1.09310E+00 3.09191E+01-4.98353E-01
 -1        55-1.09309E+00 3.09191E+01 4.98350E-01
 -1        60-9.79435E-01 2.46792E+01 2.12084E+00
 -1        61 9.79451E-01 2.46792E+01-2.12084E+00
 -1        62 1.10248E+00 2.58075E+01-2.11810E+00
 -1        63-1.10246E+00 2.58075E+01 2.11810E+00
 -1        64 8.14827E-06 2.47406E+01 1.27946E-08
 -1        65 1.04118E+00 2.52283E+01-2.11960E+00
 -1        66 8.12720E-06 2.58680E+01-1.00839E-06
 -1        67-1.04116E+00 2.52283E+01 2.11960E+00
 -1        68-1.01317E+00 1.31549E+01 3.52299E+00
 -1        69 1.01319E+00 1.31549E+01-3.52299E+00
 -1        70 1.10129E+00 1.41712E+01-3.51394E+00
 -1        71-1.10127E+00 1.41712E+01 3.51394E+00
 -1        76-9.62311E-01-3.20309E+00 4.49353E+00
 -1        77 9.62321E-01-3.20309E+00-4.49354E+00
 -1        78 1.02157E+00-2.13496E+00-4.46000E+00
 -1        79-1.02156E+00-2.13496E+00 4.46000E+00
 -1        80 4.95993E-06-3.17765E+00-8.11403E-07
 -1        81 9.91740E-01-2.67550E+00-4.47758E+00
 -1        82 4.94298E-06-2.10880E+00 9.66192E-07
 -1        83-9.91730E-01-2.67550E+00 4.47758E+00
 -1        84-9.76057E-01-2.22654E+01 4.91971E+00
 -1        85 9.76049E-01-2.22654E+01-4.91971E+00
 -1        86 9.87775E-01-2.13189E+01-4.91986E+00
 -1        87-9.87783E-01-2.13189E+01 4.91986E+00
 -1        92-9.04074E-01-4.23302E+01 5.02856E+00
 -1        93 9.04044E-01-4.23302E+01-5.02856E+00
 -1        94 9.12623E-01-4.13471E+01-4.97367E+00
 -1        95-9.12653E-01-4.13471E+01 4.97367E+00
 -1        96-1.47468E-05-4.23340E+01-1.09570E-06
 -1        97 9.09025E-01-4.18374E+01-5.00066E+00
 -1        98-1.47410E-05-4.13533E+01 1.63847E-06
 -1        99-9.09055E-01-4.18374E+01 5.00066E+00
 -3
    1PSTEP                         5           1           1          
    1PGM                1.000000E+00                                  
    1PGK                2.081277E+06                                  
    1PHID                         -1                                  
    1PSUBC                         0                                  
    1PMODE                         5                                  
  100CL  105 229.6069472          68                     2    5MODAL      1
 -4  DISP        4    1
 -5  D1          1    2    1    0
 -5  D2          1    2    2    0
 -5  D3          1    2    3    0
 -5  ALL         1    2    0    0    1ALL
 -1        12 2.09946E-02-6.31226E-02 3.49285E-06
 -1        13 2.09960E-02 6.31252E-02-3.49283E-06
 -1        14-2.09946E-02-1.53485E-01 3.49282E-06
 -1        15-2.09960E-02 1.53482E-01-3.49284E-06
 -1        16 2.09953E-02 1.30774E-06 9.97301E-12
 -1        17 6.80101E-07-4.51797E-02-2.37196E-12
 -1        18-2.09953E-02-1.30774E-06-9.97301E-12
 -1        19-6.80101E-07 4.51797E-02 2.37196E-12
 -1        20 9.18552E+00-9.87281E-03 1.10963E+00
 -1        21 9.18551E+00 9.87409E-03 1.10963E+00
 -1        22 9.19506E+00-3.12429E-02-2.61670E+00
 -1        23 9.19507E+00 3.12358E-02-2.61670E+00
 -1        28 2.50770E+01 3.95655E-02 1.00439E+00
 -1        29 2.50769E+01-3.95567E-02 1.00439E+00
 -1        30 2.50245E+01 9.51839E-02-2.34995E+00
 -1        31 2.50245E+01-9.51884E-02-2.34995E+00
 -1        32 2.50312E+01 4.36176E-06 9.73686E-01
 -1        33 2.50618E+01 2.79171E-02-6.87429E-01
 -1        34 2.49791E+01-2.30070E-06-2.37963E+00
 -1        35 2.50618E+01-2.79150E-02-6.87431E-01
 -1        36 3.22235E+01 7.37294E-02 4.88855E-03
 -1        37 3.22234E+01-7.37140E-02 4.89068E-03
 -1        38 3.21933E+01 1.87722E-01 7.19286E-03
 -1        39 3.21933E+01-1.87717E-01 7.19117E-03
 -1        44 2.41884E+01 9.11849E-02-1.22383E+00
 -1        45 2.41884E+01-9.11605E-02-1.22383E+00
 -1        46 2.40860E+01 2.20035E-01 2.89836E+00
 -1        47 2.40861E+01-2.20028E-01 2.89836E+00
 -1        48 2.40176E+01 1.22133E-05-1.20467E+00
 -1        49 2.41825E+01 6.37939E-02 8.46168E-01
 -1        50 2.39120E+01 3.89246E-06 2.91757E+00
 -1        51 2.41826E+01-6.37779E-02 8.46167E-01
 -1        52 2.31047E+00 3.21847E-03-1.78682E+00
 -1        53 2.31045E+00-3.19219E-03-1.78682E+00
 -1        54 2.32051E+00 5.33166E-03 4.24897E+00
 -1        55 2.32052E+00-5.31859E-03 4.24897E+00
 -1        60-1.98621E+01-8.73218E-02-1.26777E+00
 -1        61-1.98621E+01 8.73474E-02-1.26778E+00
 -1        62-1.98203E+01-1.98885E-01 3.00801E+00
 -1        63-1.98203E+01 1.98892E-01 3.00802E+00
 -1        64-1.97052E+01 1.28155E-05-1.24902E+00
 -1        65-1.98823E+01-5.53242E-02 8.77586E-01
 -1        66-1.96612E+01 3.59661E-06 3.02951E+00
 -1        67-1.98823E+01 5.53405E-02 8.77587E-01
 -1        68-2.82039E+01-9.98992E-02 6.86755E-02
 -1        69-2.82039E+01 9.99158E-02 6.86728E-02
 -1        70-2.81240E+01-2.53823E-01-1.59158E-01
 -1        71-2.81240E+01 2.53825E-01-1.59156E-01
 -1        76-1.76764E+01-1.00050E-01 1.49880E+00
 -1        77-1.76764E+01 1.00056E-01 1.49880E+00
 -1        78-1.76289E+01-2.22090E-01-3.54970E+00
 -1        79-1.76289E+01 2.22076E-01-3.54970E+00
 -1        80-1.75078E+01 2.78179E-06 1.48390E+00
 -1        81-1.76958E+01-6.07629E-02-1.03184E+00
 -1        82-1.74590E+01-6.91273E-06-3.56533E+00
 -1        83-1.76958E+01 6.07588E-02-1.03184E+00
 -1        84 9.28881E+00-3.85034E-02 2.35295E+00
 -1        85 9.28879E+00 3.84930E-02 2.35294E+00
 -1        86 9.32965E+00-1.01058E-01-5.59930E+00
 -1        87 9.32967E+00 1.01031E-01-5.59930E+00
 -1        92 4.33869E+01 2.95533E-04 2.55644E+00
 -1        93 4.33869E+01-3.20859E-04 2.55644E+00
 -1        94 4.33533E+01 2.95974E-02-6.08467E+00
 -1        95 4.33533E+01-2.96419E-02-6.08467E+00
 -1        96 4.33664E+01-1.26887E-05 2.54808E+00
 -1        97 4.33772E+01 1.42715E-02-1.76700E+00
 -1        98 4.33307E+01-2.22146E-05-6.09736E+00
 -1        99 4.33772E+01-1.43064E-02-1.76699E+00
 -3
    1PSTEP                         6           1           1          
    1PGM                1.000000E+00                                  
    1PGK                3.932540E+06                                  
    1PHID                         -1                                  
    1PSUBC                         0                                  
    1PMODE                         6                                  
  100CL  106 315.6143376          68                     2    6MODAL      1
 -4  DISP        4    1
 -5  D1          1    2    1    0
 -5  D2          1    2    2    0
 -5  D3          1    2    3    0
 -5  ALL         1    2    0    0    1ALL
 -1        12 7.80161E-02-2.71182E-01-6.67829E-01
 -1        13-7.80164E-02-2.71181E-01 6.67825E-01
 -1        14-1.93165E-01 2.71181E-01-6.67824E-01
 -1        15 1.93166E-01 2.71181E-01 6.67828E-01
 -1        16-1.53932E-07-2.71181E-01-1.90683E-06
 -1        17-1.35591E-01 2.98921E-07 4.53516E-07
 -1        18 1.53932E-07 2.71181E-01 1.90683E-06
 -1        19 1.35591E-01-2.98921E-07-4.53516E-07
 -1        20-5.90759E+00-1.14887E+00-3.54632E-01
 -1        21 5.90757E+00-1.14887E+00 3.54631E-01
 -1        22 5.98025E+00 4.50538E+00-6.21761E-01
 -1        23-5.98026E+00 4.50538E+00 6.21760E-01
 -1        28-1.12850E+01-3.02827E+00-2.21575E-01
 -1        29 1.12850E+01-3.02827E+00 2.21575E-01
 -1        30 1.11897E+01 8.69498E+00-7.90564E-01
 -1        31-1.11897E+01 8.69498E+00 7.90559E-01
 -1        32-2.73118E-06-3.02060E+00-1.67155E-07
 -1        33 1.12380E+01 2.83254E+00-2.98664E-01
 -1        34-2.48278E-06 8.70002E+00-2.44130E-06
 -1        35-1.12380E+01 2.83254E+00 2.98661E-01
 -1        36-1.66268E+01-4.93803E+00-1.27471E-01
 -1        37 1.66269E+01-4.93803E+00 1.27471E-01
 -1        38 1.66703E+01 1.15078E+01-7.94632E-01
 -1        39-1.66703E+01 1.15078E+01 7.94627E-01
 -1        44-2.14158E+01-7.15252E+00-8.55795E-02
 -1        45 2.14159E+01-7.15252E+00 8.55779E-02
 -1        46 2.13339E+01 1.45636E+01-7.19152E-01
 -1        47-2.13339E+01 1.45636E+01 7.19150E-01
 -1        48 1.36092E-05-7.15357E+00-8.31036E-07
 -1        49 2.13758E+01 3.70743E+00-3.25292E-01
 -1        50 1.36894E-05 1.45591E+01-9.80924E-07
 -1        51-2.13757E+01 3.70743E+00 3.25290E-01
 -1        52-2.57568E+01-8.77712E+00-1.54688E-01
 -1        53 2.57569E+01-8.77712E+00 1.54685E-01
 -1        54 2.57809E+01 1.68427E+01-5.88474E-01
 -1        55-2.57809E+01 1.68427E+01 5.88475E-01
 -1        60-2.94237E+01-1.00496E+01-2.02366E-01
 -1        61 2.94237E+01-1.00496E+01 2.02363E-01
 -1        62 2.93500E+01 1.95929E+01-3.66456E-01
 -1        63-2.93500E+01 1.95929E+01 3.66459E-01
 -1        64-2.65589E-06-1.00520E+01-1.76698E-06
 -1        65 2.93883E+01 4.77457E+00-8.92549E-02
 -1        66-2.52807E-06 1.95849E+01 1.17610E-06
 -1        67-2.93883E+01 4.77457E+00 8.92542E-02
 -1        68-3.24041E+01-1.04426E+01-2.96532E-01
 -1        69 3.24041E+01-1.04426E+01 2.96529E-01
 -1        70 3.24222E+01 2.18496E+01-1.88872E-01
 -1        71-3.24222E+01 2.18496E+01 1.88872E-01
 -1        76-3.45501E+01-1.03920E+01-2.98341E-01
 -1        77 3.45501E+01-1.03920E+01 2.98340E-01
 -1        78 3.44885E+01 2.43422E+01 2.84119E-02
 -1        79-3.44886E+01 2.43422E+01-2.84163E-02
 -1        80-1.02107E-05-1.03923E+01-4.03259E-07
 -1        81 3.45203E+01 6.97748E+00 1.60619E-01
 -1        82-1.00628E-05 2.43378E+01-2.20370E-06
 -1        83-3.45203E+01 6.97748E+00-1.60622E-01
 -1        84-3.59197E+01-9.72934E+00-3.12960E-01
 -1        85 3.59197E+01-9.72934E+00 3.12961E-01
 -1        86 3.59423E+01 2.60905E+01 1.18647E-01
 -1        87-3.59423E+01 2.60905E+01-1.18655E-01
 -1        92-3.62807E+01-8.93172E+00-1.87952E-01
 -1        93 3.62807E+01-8.93172E+00 1.87953E-01
 -1        94 3.62240E+01 2.75311E+01 3.15683E-01
 -1        95-3.62239E+01 2.75311E+01-3.15691E-01
 -1        96 1.89214E-05-8.92500E+00 3.54544E-07
 -1        97 3.62559E+01 9.30215E+00 2.49186E-01
 -1        98 1.90081E-05 2.75247E+01-4.06333E-06
 -1        99-3.62559E+01 9.30215E+00-2.49189E-01
 -3