    1C
    1UUSER                                                              
    1UDATE              02.august.2023                                  
    1UTIME              19:52:54                                        
    1UHOST                                                              
    1UPGM               CalculiX                                        
    1UVERSION           Version DEVELOPMENT                             
    1UCOMPILETIME       Wed Aug  2 19:49:47 CEST 2023                    
    1UDIR                                                               
    1UDBN                                                               
    1UMAT    1MATERIAL                                                  
    2C                             8                                     1
 -1         3 9.75484E-02 8.32934E-02 9.24473E-02
 -1         4-8.10570E-03-1.28015E-01-9.24473E-02
 -1         5-9.75484E-02-8.32934E-02-9.24473E-02
 -1         6 8.10570E-03 1.28015E-01 9.24473E-02
 -1        11 7.97548E-01 1.48329E+00-1.90755E+00
 -1        12 6.91894E-01 1.27199E+00-2.09245E+00
 -1        13 6.02452E-01 1.31671E+00-2.09245E+00
 -1        14 7.08106E-01 1.52801E+00-1.90755E+00
 -3
    3C                             1                                     1
 -1         1    1    0    1
 -2         3        11        12         4         6        14        13         5
 -3
    1PSTEP                         1           1           1          
  100CL  101 1.000000000           8                     0    1           1
 -4  DISP        4    1
 -5  D1          1    2    1    0
 -5  D2          1    2    2    0
 -5  D3          1    2    3    0
 -5  ALL         1    2    0    0    1ALL
 -1         3 6.79852E-12-2.13971E-11-3.72154E-11
 -1         4 2.25755E-11 2.91664E-11 6.95263E-12
 -1         5-6.79910E-12 2.13971E-11 3.72160E-11
 -1         6-2.25750E-11-2.91665E-11-6.95320E-12
 -1        11-3.04041E-07 2.13872E-07 3.42760E-08
 -1        12-2.99887E-07 2.22199E-07 2.23313E-08
 -1        13-3.07837E-07 2.06275E-07 4.50772E-08
 -1        14-3.11990E-07 1.97948E-07 5.70219E-08
 -3
 9999
