    1C
    1UUSER                                                              
    1UDATE              27.july.2023                                    
    1UTIME              18:51:42                                        
    1UHOST                                                              
    1UPGM               CalculiX                                        
    1UVERSION           Version DEVELOPMENT                             
    1UCOMPILETIME       Tue Jul 25 21:57:43 CEST 2023                    
    1UDIR                                                               
    1UDBN                                                               
    1UMAT    1MATERIAL                                                  
    2C                             2                                     1
 -1         1 0.00000E+00 0.00000E+00 0.00000E+00
 -1         2 1.00000E-01 0.00000E+00 0.00000E+00
 -3
    3C                             1                                     1
 -1         1   11    0    1
 -2         2         1
 -3
    1PSTEP                         1           6           1          
  100CL  101 1.00000E-01           2                     1    1           1
 -4  DISP        4    1
 -5  D1          1    2    1    0
 -5  D2          1    2    2    0
 -5  D3          1    2    3    0
 -5  ALL         1    2    0    0    1ALL
 -1         1 5.00000E-03 7.95642E-17 5.79743E-17
 -1         2 5.00000E-03-1.58679E-16 9.60093E-17
 -3
    1PSTEP                         2           6           1          
  100CL  101 1.00000E-01           2                     1    1           1
 -4  VELO        4    1
 -5  V1          1    2    1    0
 -5  V2          1    2    2    0
 -5  V3          1    2    3    0
 -5  ALL         1    2    0    0    1ALL
 -1         1 9.99998E-02 7.23250E-16 7.45006E-16
 -1         2 1.00000E-01-1.80022E-15 1.15449E-15
 -3
 9999
