
                        S T E P       1


                                INCREMENT     1


 displacements (vx,vy,vz) for set TIP and time  0.1000000E+01

         1  2.250649E-02  9.774358E-11  6.582598E-16
