    1C
    1UUSER                                                              
    1UDATE              22.december.2025                                
    1UTIME              02:09:02                                        
    1UHOST                                                              
    1UPGM               CalculiX                                        
    1UVERSION           Version DEVELOPMENT                             
    1UCOMPILETIME       So 21. Dez 21:28:15 CET 2025                    
    1UDIR                                                               
    1UDBN                                                               
    1UMAT    1MAT                                                       
    2C                            20                                     1
 -1         4-1.00000E+00 1.00000E+00 0.00000E+00
 -1         5-1.00000E+00-1.00000E+00 0.00000E+00
 -1         6 1.00000E+00-1.00000E+00 0.00000E+00
 -1         7 1.00000E+00 1.00000E+00 0.00000E+00
 -1         8-1.00000E+00 0.00000E+00 0.00000E+00
 -1         9 0.00000E+00-1.00000E+00 0.00000E+00
 -1        10 1.00000E+00 0.00000E+00 0.00000E+00
 -1        11 0.00000E+00 1.00000E+00 0.00000E+00
 -1        12-1.00000E+00 1.00000E+00 5.00000E+01
 -1        13-1.00000E+00-1.00000E+00 5.00000E+01
 -1        14 1.00000E+00-1.00000E+00 5.00000E+01
 -1        15 1.00000E+00 1.00000E+00 5.00000E+01
 -1        20-1.00000E+00 1.00000E+00 1.00000E+02
 -1        21-1.00000E+00-1.00000E+00 1.00000E+02
 -1        22 1.00000E+00-1.00000E+00 1.00000E+02
 -1        23 1.00000E+00 1.00000E+00 1.00000E+02
 -1        24-1.00000E+00 0.00000E+00 1.00000E+02
 -1        25 0.00000E+00-1.00000E+00 1.00000E+02
 -1        26 1.00000E+00 0.00000E+00 1.00000E+02
 -1        27 0.00000E+00 1.00000E+00 1.00000E+02
 -3
    3C                             1                                     1
 -1         1    4    0    1
 -2         4        20        21         5         7        23        22         6        12        24
 -2        13         8        11        27        25         9        15        26        14        10
 -3
 9999
