
                        S T E P       1


                                INCREMENT     1


 displacements (vx,vy,vz) for set MID and time  0.1000000E+01

         2  1.134030E-03  6.535959E-14  7.593280E-18
